----- GAMESS execution script 'rungms' -----
This job is running on host cpn-p27-16.cbls.ccr.buffalo.edu
under operating system Linux at Wed Dec 23 16:23:12 EST 2015
Available scratch disk space (Kbyte units) at beginning of the job is
Filesystem     1K-blocks  Used Available Use% Mounted on
/dev/sda6      293532636 32960 293499676   1% /scratch
GAMESS temporary binary files will be written to /scratch/281400
GAMESS supplementary output files will be written to /gpfs/projects/alexeyak/alexeyak/Gamess/standard
Copying input file exam01.inp to your run's scratch directory...
MPI kickoff will run GAMESS on 1 cores in 1 nodes.
The nodes are cpn-p27-16.
The binary to be executed is /util/academic/gamess/v20130501r1/impi/gamess/gamess.01.x
MPI will run 1 compute processes and 1 data servers,
    placing 2 of each process type onto each node.
The scratch disk space on each node is /scratch/281400, with free space
Filesystem     1K-blocks  Used Available Use% Mounted on
/dev/sda6      293532636 32984 293499652   1% /scratch
[-1] MPI startup(): Imported environment partly inaccesible. Map=0 Info=bfa67f0
[-1] MPI startup(): Imported environment partly inaccesible. Map=0 Info=caef7f0
[0] MPI startup(): shm data transfer mode
[1] MPI startup(): shm data transfer mode
[0] MPI startup(): Rank    Pid      Node name                        Pin cpu
[0] MPI startup(): 0       72719    cpn-p27-16.cbls.ccr.buffalo.edu  +1
[0] MPI startup(): 1       72720    cpn-p27-16.cbls.ccr.buffalo.edu  +1
          ******************************************************
          *         GAMESS VERSION =  1 MAY 2013 (R1)          *
          *             FROM IOWA STATE UNIVERSITY             *
          * M.W.SCHMIDT, K.K.BALDRIDGE, J.A.BOATZ, S.T.ELBERT, *
          *   M.S.GORDON, J.H.JENSEN, S.KOSEKI, N.MATSUNAGA,   *
          *          K.A.NGUYEN, S.J.SU, T.L.WINDUS,           *
          *       TOGETHER WITH M.DUPUIS, J.A.MONTGOMERY       *
          *         J.COMPUT.CHEM.  14, 1347-1363(1993)        *
          **************** 64 BIT INTEL VERSION ****************

  SINCE 1993, STUDENTS AND POSTDOCS WORKING AT IOWA STATE UNIVERSITY
  AND ALSO IN THEIR VARIOUS JOBS AFTER LEAVING ISU HAVE MADE IMPORTANT
  CONTRIBUTIONS TO THE CODE:
     IVANA ADAMOVIC, CHRISTINE AIKENS, YURI ALEXEEV, POOJA ARORA,
     ANDREY ASADCHEV, ROB BELL, PRADIPTA BANDYOPADHYAY, JONATHAN BENTZ,
     BRETT BODE, GALINA CHABAN, WEI CHEN, CHEOL HO CHOI, PAUL DAY,
     ALBERT DEFUSCO, TIM DUDLEY, DMITRI FEDOROV, GRAHAM FLETCHER,
     MARK FREITAG, KURT GLAESEMANN, DAN KEMP, GRANT MERRILL,
     NORIYUKI MINEZAWA, JONATHAN MULLIN, TAKESHI NAGATA,
     SEAN NEDD, HEATHER NETZLOFF, BOSILJKA NJEGIC, RYAN OLSON, MIKE PAK,
     JIM SHOEMAKER, LYUDMILA SLIPCHENKO, SAROM SOK, JIE SONG,
     TETSUYA TAKETSUGU, SIMON WEBB, SOOHAENG YOO, FEDERICO ZAHARIEV

  ADDITIONAL CODE HAS BEEN PROVIDED BY COLLABORATORS IN OTHER GROUPS:
     IOWA STATE UNIVERSITY:
          JOE IVANIC, LAIMUTIS BYTAUTAS, KLAUS RUEDENBERG
     UNIVERSITY OF TOKYO: KIMIHIKO HIRAO, TAKAHITO NAKAJIMA,
          TAKAO TSUNEDA, MUNEAKI KAMIYA, SUSUMU YANAGISAWA,
          KIYOSHI YAGI, MAHITO CHIBA, SEIKEN TOKURA, NAOAKI KAWAKAMI
     UNIVERSITY OF AARHUS: FRANK JENSEN
     UNIVERSITY OF IOWA: VISVALDAS KAIRYS, HUI LI
     NATIONAL INST. OF STANDARDS AND TECHNOLOGY: WALT STEVENS, DAVID GARMER
     UNIVERSITY OF PISA: BENEDETTA MENNUCCI, JACOPO TOMASI
     UNIVERSITY OF MEMPHIS: HENRY KURTZ, PRAKASHAN KORAMBATH
     UNIVERSITY OF ALBERTA: TOBY ZENG, MARIUSZ KLOBUKOWSKI
     UNIVERSITY OF NEW ENGLAND: MARK SPACKMAN
     MIE UNIVERSITY: HIROAKI UMEDA
     MICHIGAN STATE UNIVERSITY:
          KAROL KOWALSKI, MARTA WLOCH, JEFFREY GOUR, JESSE LUTZ,
          WEI LI, PIOTR PIECUCH
     UNIVERSITY OF SILESIA: MONIKA MUSIAL, STANISLAW KUCHARSKI
     FACULTES UNIVERSITAIRES NOTRE-DAME DE LA PAIX:
          OLIVIER QUINET, BENOIT CHAMPAGNE
     UNIVERSITY OF CALIFORNIA - SANTA BARBARA: BERNARD KIRTMAN
     INSTITUTE FOR MOLECULAR SCIENCE:
          KAZUYA ISHIMURA, MICHIO KATOUDA, AND SHIGERU NAGASE
     UNIVERSITY OF NOTRE DAME: DAN CHIPMAN
     KYUSHU UNIVERSITY:
          HARUYUKI NAKANO,
          FENG LONG GU, JACEK KORCHOWIEC, MARCIN MAKOWSKI, AND YURIKO AOKI,
          HIROTOSHI MORI AND EISAKU MIYOSHI
     PENNSYLVANIA STATE UNIVERSITY:
          TZVETELIN IORDANOV, CHET SWALINA, JONATHAN SKONE,
          SHARON HAMMES-SCHIFFER
     WASEDA UNIVERSITY:
          MASATO KOBAYASHI, TOMOKO AKAMA, TSUGUKI TOUMA,
          TAKESHI YOSHIKAWA, YASUHIRO IKABATA, HIROMI NAKAI
     NANJING UNIVERSITY: SHUHUA LI
     UNIVERSITY OF NEBRASKA:
          PEIFENG SU, DEJUN SI, NANDUN THELLAMUREGE, YALI WANG, HUI LI
     UNIVERSITY OF ZURICH:
          ROBERTO PEVERATI, KIM BALDRIDGE
     N. COPERNICUS UNIVERSITY AND JACKSON STATE UNIVERSITY:
          MARIA BARYSZ

 EXECUTION OF GAMESS BEGUN Wed Dec 23 16:23:12 2015

            ECHO OF THE FIRST FEW INPUT CARDS -
 INPUT CARD>! EXAM01.                                                                       
 INPUT CARD>!    1-A-1 CH2    RHF geometry optimization using GAMESS.                       
 INPUT CARD>!                                                                               
 INPUT CARD>!    Although internal coordinates are used (COORD=ZMAT),                       
 INPUT CARD>!    the optimization is done in Cartesian space (NZVAR=0).                     
 INPUT CARD>!    This run uses a criterion (OPTTOL) on the gradient                         
 INPUT CARD>!    which is tighter than default, but very safe.                              
 INPUT CARD>!                                                                               
 INPUT CARD>!    This job tests the sp integral module, the RHF module,                     
 INPUT CARD>!    and the geometry optimization module.                                      
 INPUT CARD>!                                                                               
 INPUT CARD>!    Using the default search METHOD=STANDARD,                                  
 INPUT CARD>!    FINAL E= -37.2322678015, 8 iters, RMS grad= .0264308                       
 INPUT CARD>!    FINAL E= -37.2351919062, 7 iters, RMS grad= .0202617                       
 INPUT CARD>!    FINAL E= -37.2380037239, 7 iters, RMS grad= .0013100                       
 INPUT CARD>!    FINAL E= -37.2380352917, 8 iters, RMS grad= .0007519                       
 INPUT CARD>!    FINAL E= -37.2380396312, 5 iters, RMS grad= .0001615                       
 INPUT CARD>!    FINAL E= -37.2380397693, 5 iters, RMS grad= .0000067                       
 INPUT CARD>!    FINAL E= -37.2380397698, 3 iters, RMS grad= .0000004                       
 INPUT CARD>!                                                                               
 INPUT CARD> $CONTRL SCFTYP=RHF RUNTYP=OPTIMIZE COORD=ZMT NZVAR=0 NPRINT=9 $END             
 INPUT CARD> $SYSTEM TIMLIM=1 $END                                                          
 INPUT CARD> $STATPT OPTTOL=1.0E-5  $END                                                    
 INPUT CARD> $BASIS  GBASIS=STO NGAUSS=2 $END                                               
 INPUT CARD> $GUESS  GUESS=HUCKEL $END                                                      
 INPUT CARD> $DATA                                                                          
 INPUT CARD>Methylene...1-A-1 state...RHF/STO-2G                                            
 INPUT CARD>Cnv  2                                                                          
 INPUT CARD>                                                                                
 INPUT CARD>C                                                                               
 INPUT CARD>H  1 rCH                                                                        
 INPUT CARD>H  1 rCH  2 aHCH                                                                
 INPUT CARD>                                                                                
 INPUT CARD>rCH=1.09                                                                        
 INPUT CARD>aHCH=110.0                                                                      
 INPUT CARD> $END                                                                           
    1000000 WORDS OF MEMORY AVAILABLE

     BASIS OPTIONS
     -------------
     GBASIS=STO          IGAUSS=       2      POLAR=NONE    
     NDFUNC=       0     NFFUNC=       0     DIFFSP=       F
     NPFUNC=       0      DIFFS=       F     BASNAM=        


     RUN TITLE
     ---------
 Methylene...1-A-1 state...RHF/STO-2G                                            

 THE POINT GROUP OF THE MOLECULE IS CNV     
 THE ORDER OF THE PRINCIPAL AXIS IS     2

 YOUR FULLY SUBSTITUTED Z-MATRIX IS
 C   
 H      1   1.0900000
 H      1   1.0900000  2  110.0000

 THE MOMENTS OF INERTIA ARE (AMU-ANGSTROM**2)
 IXX=     0.675   IYY=     1.607   IZZ=     2.281

 ATOM      ATOMIC                      COORDINATES (BOHR)
           CHARGE         X                   Y                   Z
 C           6.0     0.0000000000        0.0000000000       -0.1699098334
 H           1.0    -1.6872904675        0.0000000000        1.0115436711
 H           1.0     1.6872904675        0.0000000000        1.0115436711

          INTERNUCLEAR DISTANCES (ANGS.)
          ------------------------------

                1 C          2 H          3 H     

   1 C       0.0000000    1.0900000 *  1.0900000 *
   2 H       1.0900000 *  0.0000000    1.7857515 *
   3 H       1.0900000 *  1.7857515 *  0.0000000  

  * ... LESS THAN  3.000


     ATOMIC BASIS SET
     ----------------
 THE CONTRACTED PRIMITIVE FUNCTIONS HAVE BEEN UNNORMALIZED
 THE CONTRACTED BASIS FUNCTIONS ARE NOW NORMALIZED TO UNITY

  SHELL TYPE  PRIMITIVE        EXPONENT          CONTRACTION COEFFICIENT(S)

 C         

      1   S       1            27.3850330    0.430128498301
      1   S       2             4.8745221    0.678913530502

      2   L       3             1.1367482    0.049471769201    0.511540707616
      2   L       4             0.2883094    0.963782408119    0.612819896119

 H         

      4   S       5             1.3097564    0.430128498301
      4   S       6             0.2331360    0.678913530502

 TOTAL NUMBER OF BASIS SET SHELLS             =    4
 NUMBER OF CARTESIAN GAUSSIAN BASIS FUNCTIONS =    7
 NUMBER OF ELECTRONS                          =    8
 CHARGE OF MOLECULE                           =    0
 SPIN MULTIPLICITY                            =    1
 NUMBER OF OCCUPIED ORBITALS (ALPHA)          =    4
 NUMBER OF OCCUPIED ORBITALS (BETA )          =    4
 TOTAL NUMBER OF ATOMS                        =    3
 THE NUCLEAR REPULSION ENERGY IS        6.1221376700

     $CONTRL OPTIONS
     ---------------
 SCFTYP=RHF          RUNTYP=OPTIMIZE     EXETYP=RUN     
 MPLEVL=       0     CITYP =NONE         CCTYP =NONE         VBTYP =NONE    
 DFTTYP=NONE         TDDFT =NONE    
 MULT  =       1     ICHARG=       0     NZVAR =       0     COORD =ZMT     
 PP    =NONE         RELWFN=NONE         LOCAL =NONE         NUMGRD=       F
 ISPHER=      -1     NOSYM =       0     MAXIT =      30     UNITS =ANGS    
 PLTORB=       F     MOLPLT=       F     AIMPAC=       F     FRIEND=        
 NPRINT=       9     IREST =       0     GEOM  =INPUT   
 NORMF =       0     NORMP =       0     ITOL  =      20     ICUT  =       9
 INTTYP=BEST         GRDTYP=BEST         QMTTOL= 1.0E-06

     $SYSTEM OPTIONS
     ---------------
  REPLICATED MEMORY=     1000000 WORDS (ON EVERY NODE).
 DISTRIBUTED MEMDDI=           0 MILLION WORDS IN AGGREGATE,
 MEMDDI DISTRIBUTED OVER   1 PROCESSORS IS           0 WORDS/PROCESSOR.
 TOTAL MEMORY REQUESTED ON EACH PROCESSOR=     1000000 WORDS.
 TIMLIM=           1.00 MINUTES, OR       0.0 DAYS.
 PARALL= F  BALTYP=  DLB     KDIAG=    0  COREFL= F
 MXSEQ2=     300 MXSEQ3=     150

          ----------------
          PROPERTIES INPUT
          ----------------

     MOMENTS            FIELD           POTENTIAL          DENSITY
 IEMOM =       1   IEFLD =       0   IEPOT =       0   IEDEN =       0
 WHERE =COMASS     WHERE =NUCLEI     WHERE =NUCLEI     WHERE =NUCLEI  
 OUTPUT=BOTH       OUTPUT=BOTH       OUTPUT=BOTH       OUTPUT=BOTH    
 IEMINT=       0   IEFINT=       0                     IEDINT=       0
                                                       MORB  =       0
          EXTRAPOLATION IN EFFECT
 ORBITAL PRINTING OPTION: NPREO=     1     7     2     1

     -------------------------------
     INTEGRAL TRANSFORMATION OPTIONS
     -------------------------------
     NWORD  =            0
     CUTOFF = 1.0E-09     MPTRAN =       0
     DIRTRF =       F     AOINTS =DUP     

          ----------------------
          INTEGRAL INPUT OPTIONS
          ----------------------
 NOPK  =       1 NORDER=       0 SCHWRZ=       F

   --- ENCODED Z MATRIX ---
 COORD  TYPE   I   J   K   L   M   N
    1      1    3   1
    2      1    2   1
    3      2    2   1   3

 THE DETERMINANT OF THE G MATRIX IS 10**(    -1)

     ------------------------------------------
     THE POINT GROUP IS CNV, NAXIS= 2, ORDER= 4
     ------------------------------------------

     DIMENSIONS OF THE SYMMETRY SUBSPACES ARE
 A1  =    4     A2  =    0     B1  =    2     B2  =    1

 ..... DONE SETTING UP THE RUN .....
 STEP CPU TIME =     0.01 TOTAL CPU TIME =        0.0 (    0.0 MIN)
 TOTAL WALL CLOCK TIME=        0.0 SECONDS, CPU UTILIZATION IS 100.00%


          -----------------------------
          STATIONARY POINT LOCATION RUN
          -----------------------------

 OBTAINING INITIAL HESSIAN, HESS=GUESS   
 CARTESIAN COORDINATE OPTIMIZATION USING BADGER'S RULE FORCE CONSTANT GUESS

          PARAMETERS CONTROLLING GEOMETRY SEARCH ARE
          METHOD =QA                  UPHESS =BFGS    
          NNEG   =         0          NFRZ   =         0
          NSTEP  =        50          IFOLOW =         1
          HESS   =GUESS               RESTAR =         F
          IHREP  =         0          HSSEND =         F
          NPRT   =         0          NPUN   =         0
          OPTTOL = 1.000E-05          RMIN   = 1.500E-03
          RMAX   = 1.000E-01          RLIM   = 7.000E-02
          DXMAX  = 3.000E-01          PURIFY =         F
          MOVIE  =         F          TRUPD  =         T
          TRMAX  = 5.000E-01          TRMIN  = 5.000E-02
          ITBMAT =         5          STPT   =         F
          STSTEP = 1.000E-02          PROJCT=          T

 BEGINNING GEOMETRY SEARCH POINT NSERCH=   0 ...

 COORDINATES OF SYMMETRY UNIQUE ATOMS (ANGS)
   ATOM   CHARGE       X              Y              Z
 ------------------------------------------------------------
 C           6.0   0.0000000000   0.0000000000  -0.0899124183
 H           1.0   0.8928757283   0.0000000000   0.5352858974
 COORDINATES OF ALL ATOMS ARE (ANGS)
   ATOM   CHARGE       X              Y              Z
 ------------------------------------------------------------
 C           6.0   0.0000000000   0.0000000000  -0.0899124183
 H           1.0  -0.8928757283   0.0000000000   0.5352858974
 H           1.0   0.8928757283   0.0000000000   0.5352858974

 THE CURRENT FULLY SUBSTITUTED Z-MATRIX IS
 C   
 H      1   1.0900000
 H      1   1.0900000  2   110.0000000

          ********************
          1 ELECTRON INTEGRALS
          ********************
 ...... END OF ONE-ELECTRON INTEGRALS ......
 STEP CPU TIME =     0.00 TOTAL CPU TIME =        0.0 (    0.0 MIN)
 TOTAL WALL CLOCK TIME=        0.1 SECONDS, CPU UTILIZATION IS  12.50%

          -------------
          GUESS OPTIONS
          -------------
          GUESS =HUCKEL            NORB  =       0          NORDER=       0
          MIX   =       F          PRTMO =       F          PUNMO =       F
          TOLZ  = 1.0E-08          TOLE  = 1.0E-05
          SYMDEN=       F          PURIFY=       F

 INITIAL GUESS ORBITALS GENERATED BY HUCKEL   ROUTINE.
 HUCKEL GUESS REQUIRES      2569 WORDS.

 SYMMETRIES FOR INITIAL GUESS ORBITALS FOLLOW.   BOTH SET(S).
     4 ORBITALS ARE OCCUPIED (    1 CORE ORBITALS).
     2=A1       3=B1       4=A1       5=B2       6=B1       7=A1  
 ...... END OF INITIAL ORBITAL SELECTION ......
 STEP CPU TIME =     0.00 TOTAL CPU TIME =        0.0 (    0.0 MIN)
 TOTAL WALL CLOCK TIME=        0.1 SECONDS, CPU UTILIZATION IS  12.50%

                    ----------------------
                    AO INTEGRAL TECHNOLOGY
                    ----------------------
     S,P,L SHELL ROTATED AXIS INTEGRALS, REPROGRAMMED BY
        KAZUYA ISHIMURA (IMS) AND JOSE SIERRA (SYNSTAR).
     S,P,D,L SHELL ROTATED AXIS INTEGRALS PROGRAMMED BY
        KAZUYA ISHIMURA (INSTITUTE FOR MOLECULAR SCIENCE).
     S,P,D,F,G SHELL TO TOTAL QUARTET ANGULAR MOMENTUM SUM 5,
        ERIC PROGRAM BY GRAHAM FLETCHER (ELORET AND NASA ADVANCED
        SUPERCOMPUTING DIVISION, AMES RESEARCH CENTER).
     S,P,D,F,G,L SHELL GENERAL RYS QUADRATURE PROGRAMMED BY
        MICHEL DUPUIS (PACIFIC NORTHWEST NATIONAL LABORATORY).

          --------------------
          2 ELECTRON INTEGRALS
          --------------------

 THE -PK- OPTION IS OFF, THE INTEGRALS ARE NOT IN SUPERMATRIX FORM.
 STORING   15000 INTEGRALS/RECORD ON DISK, USING 12 BYTES/INTEGRAL.
 TWO ELECTRON INTEGRAL EVALUATION REQUIRES   89366 WORDS OF MEMORY.
 II,JST,KST,LST =  1  1  1  1 NREC =         1 INTLOC =    1
 II,JST,KST,LST =  2  1  1  1 NREC =         1 INTLOC =    2
 II,JST,KST,LST =  3  1  1  1 NREC =         1 INTLOC =   34
 II,JST,KST,LST =  4  1  1  1 NREC =         1 INTLOC =   34
 TOTAL NUMBER OF NONZERO TWO-ELECTRON INTEGRALS =                 141
          1 INTEGRAL RECORDS WERE STORED ON DISK FILE  8.
  ...... END OF TWO-ELECTRON INTEGRALS .....
 STEP CPU TIME =     0.02 TOTAL CPU TIME =        0.0 (    0.0 MIN)
 TOTAL WALL CLOCK TIME=        0.1 SECONDS, CPU UTILIZATION IS  30.00%

          --------------------------
                 RHF SCF CALCULATION
          --------------------------

     NUCLEAR ENERGY =         6.1221376700
     MAXIT =   30     NPUNCH=    2
     EXTRAP=T  DAMP=F  SHIFT=F  RSTRCT=F  DIIS=F  DEM=F  SOSCF=F
     DENSITY MATRIX CONV=  1.00E-05
     MEMORY REQUIRED FOR RHF ITERS=     30441 WORDS.

 ITER EX DEM     TOTAL ENERGY        E CHANGE  DENSITY CHANGE    DIIS ERROR
   1  0  0      -37.1725772831   -37.1725772831   0.380764105   0.000000000
   2  1  0      -37.2279756203    -0.0553983372   0.131481807   0.000000000
   3  2  0      -37.2317322477    -0.0037566275   0.046548651   0.000000000
   4  3  0      -37.2321932103    -0.0004609626   0.016847695   0.000000000
   5  0  0      -37.2322568537    -0.0000636433   0.010114675   0.000000000
   6  1  0      -37.2322678008    -0.0000109472   0.000054437   0.000000000
   7  2  0      -37.2322678015    -0.0000000006   0.000017898   0.000000000
   8  3  0      -37.2322678015    -0.0000000001   0.000006281   0.000000000

          -----------------
          DENSITY CONVERGED
          -----------------
     TIME TO FORM FOCK OPERATORS=       0.0 SECONDS (       0.0 SEC/ITER)
     TIME TO SOLVE SCF EQUATIONS=       0.0 SECONDS (       0.0 SEC/ITER)

 FINAL RHF ENERGY IS      -37.2322678015 AFTER   8 ITERATIONS

          ------------
          EIGENVECTORS
          ------------

                      1          2          3          4          5
                  -10.6188    -0.8205    -0.5149    -0.2795     0.2459
                     A1         A1         B1         A1         B2  
    1  C  1  S    0.983734  -0.243675   0.000000   0.165844   0.000000
    2  C  1  S    0.063273   0.641662   0.000000  -0.643100   0.000000
    3  C  1  X    0.000000   0.000000   0.520733   0.000000   0.000000
    4  C  1  Y    0.000000   0.000000   0.000000   0.000000   1.000000
    5  C  1  Z    0.011358   0.170910   0.000000   0.766041   0.000000
    6  H  2  S   -0.016439   0.285809  -0.462540   0.227438   0.000000
    7  H  3  S   -0.016439   0.285809   0.462540   0.227438   0.000000

                      6          7
                    0.7165     0.7715
                     A1         B1  
    1  C  1  S   -0.217216   0.000000
    2  C  1  S    1.114002   0.000000
    3  C  1  X    0.000000   1.125147
    4  C  1  Y    0.000000   0.000000
    5  C  1  Z    0.811132   0.000000
    6  H  2  S   -0.904459   0.836937
    7  H  3  S   -0.904459  -0.836937

          --------------
          DENSITY MATRIX
          --------------

                      1          2          3          4          5

    1  C  1  S    2.109228
    2  C  1  S   -0.401535   1.658621
    3  C  1  X    0.000000   0.000000   0.542325
    4  C  1  Y    0.000000   0.000000   0.000000   0.000000
    5  C  1  Z    0.193140  -0.764511   0.000000   0.000000   1.232317
    6  H  2  S   -0.096194   0.072174  -0.481720   0.000000   0.445776
    7  H  3  S   -0.096194   0.072174   0.481720   0.000000   0.445776

                      6          7

    6  H  2  S    0.695258
    7  H  3  S   -0.160517   0.695258
 ...... END OF RHF CALCULATION ......
 STEP CPU TIME =     0.00 TOTAL CPU TIME =        0.0 (    0.0 MIN)
 TOTAL WALL CLOCK TIME=        0.1 SECONDS, CPU UTILIZATION IS  30.00%

     ----------------------------------------------------------------
     PROPERTY VALUES FOR THE RHF   SELF-CONSISTENT FIELD WAVEFUNCTION
     ----------------------------------------------------------------

          -----------------
          ENERGY COMPONENTS
          -----------------

         WAVEFUNCTION NORMALIZATION =       1.0000000000

                ONE ELECTRON ENERGY =     -62.2411640490
                TWO ELECTRON ENERGY =      18.8867585775
           NUCLEAR REPULSION ENERGY =       6.1221376700
                                      ------------------
                       TOTAL ENERGY =     -37.2322678015

 ELECTRON-ELECTRON POTENTIAL ENERGY =      18.8867585775
  NUCLEUS-ELECTRON POTENTIAL ENERGY =     -99.4193946754
   NUCLEUS-NUCLEUS POTENTIAL ENERGY =       6.1221376700
                                      ------------------
             TOTAL POTENTIAL ENERGY =     -74.4104984279
               TOTAL KINETIC ENERGY =      37.1782306264
                 VIRIAL RATIO (V/T) =       2.0014534628

  ...... PI ENERGY ANALYSIS ......

 ENERGY ANALYSIS:
            FOCK ENERGY=    -24.4676470721
          BARE H ENERGY=    -62.2411640490
     ELECTRONIC ENERGY =    -43.3544055605
         KINETIC ENERGY=     37.1782306264
          N-N REPULSION=      6.1221376700
           TOTAL ENERGY=    -37.2322678905
        SIGMA PART(1+2)=    -43.3544055605
               (K,V1,2)=     37.1782306264    -99.4193946754     18.8867584884
           PI PART(1+2)=      0.0000000000
               (K,V1,2)=      0.0000000000      0.0000000000      0.0000000000
  SIGMA SKELETON, ERROR=    -37.2322678905      0.0000000000
             MIXED PART= 0.00000E+00 0.00000E+00 0.00000E+00 0.00000E+00
 ...... END OF PI ENERGY ANALYSIS ......

          -----------------------------------------
          LOWDIN ORBITAL (VO(I,J)**2)*SIGN(VO(I,J))
          -----------------------------------------

                      1          2          3          4          5

                  -10.6188    -0.8205    -0.5149    -0.2795     0.2459

    1  C  1  S   -0.965323  -0.021190  -0.000000  -0.006673  -0.000000
    2  C  1  S   -0.034284   0.486524   0.000000   0.231360  -0.000000
    3  C  1  X   -0.000000  -0.000000  -0.478499  -0.000000   0.000000
    4  C  1  Y    0.000000   0.000000   0.000000   0.000000   1.000000
    5  C  1  Z   -0.000025   0.049791   0.000000  -0.703989  -0.000000
    6  H  2  S   -0.000184   0.221247   0.260751  -0.028989   0.000000
    7  H  3  S   -0.000184   0.221247  -0.260751  -0.028989  -0.000000

                      6          7

                    0.7165     0.7715

    1  C  1  S   -0.006813   0.000000
    2  C  1  S    0.247832  -0.000000
    3  C  1  X   -0.000000   0.521501
    4  C  1  Y   -0.000000   0.000000
    5  C  1  Z    0.246195  -0.000000
    6  H  2  S   -0.249579   0.239249
    7  H  3  S   -0.249579  -0.239249

          ------------------------
          LOWDIN BOND ORDER MATRIX
          ------------------------

                      1          2          3          4          5

    1  C  1  S    1.986373
    2  C  1  S    0.000000   1.504335
    3  C  1  X    0.000000   0.000000   0.956997
    4  C  1  Y    0.000000   0.000000   0.000000   0.000000
    5  C  1  Z    0.000000   0.000000   0.000000   0.000000   1.507610
    6  H  2  S    0.000000   0.000000   0.000000   0.000000   0.000000
    7  H  3  S    0.000000   0.000000   0.000000   0.000000   0.000000

                      6          7

    6  H  2  S    1.022342
    7  H  3  S    0.000000   1.022342

          ---------------------------------------
          MULLIKEN AND LOWDIN POPULATION ANALYSES
          ---------------------------------------

     AO MULLIKEN POPULATIONS IN EACH MOLECULAR ORBITAL

                      1          2          3          4

                  2.000000   2.000000   2.000000   2.000000

    1             1.965209   0.017622   0.000000   0.006438
    2             0.039590   1.097965   0.000000   0.483263
    3             0.000000   0.000000   0.911524   0.000000
    4             0.000000   0.000000   0.000000   0.000000
    5             0.000058   0.110849   0.000000   1.360636
    6            -0.002428   0.386782   0.544238   0.074831
    7            -0.002428   0.386782   0.544238   0.074831

     ATOMIC MULLIKEN POPULATION IN EACH MOLECULAR ORBITAL

                      1          2          3          4

                  2.000000   2.000000   2.000000   2.000000

    1             2.004857   1.226436   0.911524   1.850337
    2            -0.002428   0.386782   0.544238   0.074831
    3            -0.002428   0.386782   0.544238   0.074831

               ----- POPULATIONS IN EACH AO -----
                             MULLIKEN      LOWDIN
              1  C  1  S      1.98927     1.98637
              2  C  1  S      1.62082     1.50434
              3  C  1  X      0.91152     0.95700
              4  C  1  Y      0.00000     0.00000
              5  C  1  Z      1.47154     1.50761
              6  H  2  S      1.00342     1.02234
              7  H  3  S      1.00342     1.02234

          ----- MULLIKEN ATOMIC OVERLAP POPULATIONS -----
          (OFF-DIAGONAL ELEMENTS NEED TO BE MULTIPLIED BY 2)

             1           2           3

    1    5.3256171
    2    0.3337681   0.6952578
    3    0.3337681  -0.0256025   0.6952578

          TOTAL MULLIKEN AND LOWDIN ATOMIC POPULATIONS
       ATOM         MULL.POP.    CHARGE          LOW.POP.     CHARGE
    1 C             5.993153    0.006847         5.955315    0.044685
    2 H             1.003423   -0.003423         1.022342   -0.022342
    3 H             1.003423   -0.003423         1.022342   -0.022342

          -------------------------------
          BOND ORDER AND VALENCE ANALYSIS     BOND ORDER THRESHOLD=0.050
          -------------------------------

                   BOND                       BOND                       BOND
  ATOM PAIR DIST  ORDER      ATOM PAIR DIST  ORDER      ATOM PAIR DIST  ORDER
    1   2  1.090  0.993        1   3  1.090  0.993

                       TOTAL       BONDED        FREE
      ATOM            VALENCE     VALENCE     VALENCE
    1 C                 1.986       1.986       0.000
    2 H                 1.000       1.000       0.000
    3 H                 1.000       1.000       0.000

          ---------------------
          ELECTROSTATIC MOMENTS
          ---------------------

 POINT   1           X           Y           Z (BOHR)    CHARGE
                 0.000000    0.000000    0.000000        0.00 (A.U.)
         DX          DY          DZ         /D/  (DEBYE)
     0.000000   -0.000000    1.515763    1.515763
 ...... END OF PROPERTY EVALUATION ......
 STEP CPU TIME =     0.00 TOTAL CPU TIME =        0.0 (    0.0 MIN)
 TOTAL WALL CLOCK TIME=        0.1 SECONDS, CPU UTILIZATION IS  30.00%

 BEGINNING ONE ELECTRON GRADIENT...
 ..... END OF 1-ELECTRON GRADIENT ......
 STEP CPU TIME =     0.00 TOTAL CPU TIME =        0.0 (    0.0 MIN)
 TOTAL WALL CLOCK TIME=        0.1 SECONDS, CPU UTILIZATION IS  27.27%

          ----------------------
          GRADIENT OF THE ENERGY
          ----------------------
 THE COARSE/FINE SCHWARZ SCREENINGS SKIPPED            0/           0 BLOCKS.
 THE NUMBER OF GRADIENT INTEGRAL BLOCKS COMPUTED WAS        27
 ...... END OF 2-ELECTRON GRADIENT ......
 STEP CPU TIME =     0.00 TOTAL CPU TIME =        0.0 (    0.0 MIN)
 TOTAL WALL CLOCK TIME=        0.1 SECONDS, CPU UTILIZATION IS  27.27%

          NSERCH=  0     ENERGY=     -37.2322678

                                 -----------------------
                                 GRADIENT (HARTREE/BOHR)
                                 -----------------------
        ATOM     ZNUC       DE/DX         DE/DY         DE/DZ
 --------------------------------------------------------------
    1  C            6.0     0.0000000     0.0000000     0.0637451
    2  H            1.0     0.0098017     0.0000000    -0.0318725
    3  H            1.0    -0.0098017     0.0000000    -0.0318725

          MAXIMUM GRADIENT = 0.0637451    RMS GRADIENT = 0.0264308

 NSERCH:   0  E=      -37.2322678015  GRAD. MAX=  0.0637451  R.M.S.=  0.0264308

          FORCE CONSTANT MATRIX NOT UPDATED --- TAKING FIRST STEP
          MIN SEARCH, CORRECT HESSIAN, TRYING PURE NR STEP
               NR STEP HAS LENGTH         =   1.071191
          TRIM/QA LAMBDA FOR NON-TS MODES =  -0.11091841
          TRIM/QA STEP HAS LENGTH         =   0.300000
          RADIUS OF STEP TAKEN=   0.30000  CURRENT TRUST RADIUS=   0.30000

 BEGINNING GEOMETRY SEARCH POINT NSERCH=   1 ...

 COORDINATES OF SYMMETRY UNIQUE ATOMS (ANGS)
   ATOM   CHARGE       X              Y              Z
 ------------------------------------------------------------
 C           6.0   0.0000000000   0.0000000000  -0.2034015850
 H           1.0   0.8386406655   0.0000000000   0.5920304807
 COORDINATES OF ALL ATOMS ARE (ANGS)
   ATOM   CHARGE       X              Y              Z
 ------------------------------------------------------------
 C           6.0   0.0000000000   0.0000000000  -0.2034015850
 H           1.0  -0.8386406655   0.0000000000   0.5920304807
 H           1.0   0.8386406655   0.0000000000   0.5920304807

 THE CURRENT FULLY SUBSTITUTED Z-MATRIX IS
 C   
 H      1   1.1558678
 H      1   1.1558678  2    93.0293556

          INTERNUCLEAR DISTANCES (ANGS.)
          ------------------------------

                1 C          2 H          3 H     

   1 C       0.0000000    1.1558678 *  1.1558678 *
   2 H       1.1558678 *  0.0000000    1.6772813 *
   3 H       1.1558678 *  1.6772813 *  0.0000000  

  * ... LESS THAN  3.000


          ********************
          1 ELECTRON INTEGRALS
          ********************
 ...... END OF ONE-ELECTRON INTEGRALS ......
 STEP CPU TIME =     0.00 TOTAL CPU TIME =        0.0 (    0.0 MIN)
 TOTAL WALL CLOCK TIME=        0.1 SECONDS, CPU UTILIZATION IS  27.27%

          --------------------
          2 ELECTRON INTEGRALS
          --------------------

 THE -PK- OPTION IS OFF, THE INTEGRALS ARE NOT IN SUPERMATRIX FORM.
 STORING   15000 INTEGRALS/RECORD ON DISK, USING 12 BYTES/INTEGRAL.
 TWO ELECTRON INTEGRAL EVALUATION REQUIRES   89366 WORDS OF MEMORY.
 II,JST,KST,LST =  1  1  1  1 NREC =         1 INTLOC =    1
 II,JST,KST,LST =  2  1  1  1 NREC =         1 INTLOC =    2
 II,JST,KST,LST =  3  1  1  1 NREC =         1 INTLOC =   34
 II,JST,KST,LST =  4  1  1  1 NREC =         1 INTLOC =   34
 TOTAL NUMBER OF NONZERO TWO-ELECTRON INTEGRALS =                 141
          1 INTEGRAL RECORDS WERE STORED ON DISK FILE  8.
  ...... END OF TWO-ELECTRON INTEGRALS .....
 STEP CPU TIME =     0.00 TOTAL CPU TIME =        0.0 (    0.0 MIN)
 TOTAL WALL CLOCK TIME=        0.1 SECONDS, CPU UTILIZATION IS  27.27%

          --------------------------
                 RHF SCF CALCULATION
          --------------------------

     NUCLEAR ENERGY =         5.8093147936
     MAXIT =   30     NPUNCH=    1
     EXTRAP=T  DAMP=F  SHIFT=F  RSTRCT=F  DIIS=F  DEM=F  SOSCF=F
     DENSITY MATRIX CONV=  2.00E-04
     MEMORY REQUIRED FOR RHF ITERS=     30441 WORDS.

 ITER EX DEM     TOTAL ENERGY        E CHANGE  DENSITY CHANGE    DIIS ERROR
   1  0  0      -37.2317326369   -37.2317326369   0.096870864   0.000000000
   2  1  0      -37.2347412201    -0.0030085832   0.035413951   0.000000000
   3  2  0      -37.2351244521    -0.0003832319   0.012949728   0.000000000
   4  3  0      -37.2351815594    -0.0000571074   0.004834132   0.000000000
   5  0  0      -37.2351903006    -0.0000087411   0.002997974   0.000000000
   6  1  0      -37.2351919062    -0.0000016056   0.000003384   0.000000000
   7  2  0      -37.2351919062    -0.0000000000   0.000001165   0.000000000

          -----------------
          DENSITY CONVERGED
          -----------------
     TIME TO FORM FOCK OPERATORS=       0.0 SECONDS (       0.0 SEC/ITER)
     TIME TO SOLVE SCF EQUATIONS=       0.0 SECONDS (       0.0 SEC/ITER)

 FINAL RHF ENERGY IS      -37.2351919062 AFTER   7 ITERATIONS

          ------------
          EIGENVECTORS
          ------------

                      1          2          3          4          5
                  -10.6314    -0.8100    -0.4614    -0.3076     0.2409
                     A1         A1         B1         A1         B2  
    1  C  1  S    0.984213  -0.242866   0.000000   0.180354   0.000000
    2  C  1  S    0.059987   0.659657   0.000000  -0.688765   0.000000
    3  C  1  X    0.000000   0.000000   0.543386   0.000000   0.000000
    4  C  1  Y    0.000000   0.000000   0.000000   0.000000   1.000000
    5  C  1  Z    0.011418   0.174334   0.000000   0.700077   0.000000
    6  H  2  S   -0.014638   0.278556  -0.477667   0.258824   0.000000
    7  H  3  S   -0.014638   0.278556   0.477667   0.258824   0.000000

                      6          7
                    0.6440     0.6980
                     B1         A1  
    1  C  1  S    0.000000  -0.194183
    2  C  1  S    0.000000   0.961468
    3  C  1  X    1.026683   0.000000
    4  C  1  Y    0.000000   0.000000
    5  C  1  Z    0.000000   0.894864
    6  H  2  S    0.778752  -0.841885
    7  H  3  S   -0.778752  -0.841885

          --------------
          DENSITY MATRIX
          --------------

                      1          2          3          4          5

    1  C  1  S    2.120372
    2  C  1  S   -0.450778   1.826286
    3  C  1  X    0.000000   0.000000   0.590536
    4  C  1  Y    0.000000   0.000000   0.000000   0.000000
    5  C  1  Z    0.190320  -0.733006   0.000000   0.000000   1.041260
    6  H  2  S   -0.070757   0.009208  -0.519115   0.000000   0.459183
    7  H  3  S   -0.070757   0.009208   0.519115   0.000000   0.459183

                      6          7

    6  H  2  S    0.745928
    7  H  3  S   -0.166736   0.745928
 ...... END OF RHF CALCULATION ......
 STEP CPU TIME =     0.00 TOTAL CPU TIME =        0.0 (    0.0 MIN)
 TOTAL WALL CLOCK TIME=        0.1 SECONDS, CPU UTILIZATION IS  27.27%

     ----------------------------------------------------------------
     PROPERTY VALUES FOR THE RHF   SELF-CONSISTENT FIELD WAVEFUNCTION
     ----------------------------------------------------------------

          -----------------
          ENERGY COMPONENTS
          -----------------

         WAVEFUNCTION NORMALIZATION =       1.0000000000

                ONE ELECTRON ENERGY =     -61.6683033517
                TWO ELECTRON ENERGY =      18.6237966518
           NUCLEAR REPULSION ENERGY =       5.8093147936
                                      ------------------
                       TOTAL ENERGY =     -37.2351919062

 ELECTRON-ELECTRON POTENTIAL ENERGY =      18.6237966518
  NUCLEUS-ELECTRON POTENTIAL ENERGY =     -98.8537733870
   NUCLEUS-NUCLEUS POTENTIAL ENERGY =       5.8093147936
                                      ------------------
             TOTAL POTENTIAL ENERGY =     -74.4206619415
               TOTAL KINETIC ENERGY =      37.1854700353
                 VIRIAL RATIO (V/T) =       2.0013371317

  ...... PI ENERGY ANALYSIS ......

 ENERGY ANALYSIS:
            FOCK ENERGY=    -24.4207102451
          BARE H ENERGY=    -61.6683033517
     ELECTRONIC ENERGY =    -43.0445067984
         KINETIC ENERGY=     37.1854700353
          N-N REPULSION=      5.8093147936
           TOTAL ENERGY=    -37.2351920047
        SIGMA PART(1+2)=    -43.0445067984
               (K,V1,2)=     37.1854700353    -98.8537733870     18.6237965533
           PI PART(1+2)=      0.0000000000
               (K,V1,2)=      0.0000000000      0.0000000000      0.0000000000
  SIGMA SKELETON, ERROR=    -37.2351920047      0.0000000000
             MIXED PART= 0.00000E+00 0.00000E+00 0.00000E+00 0.00000E+00
 ...... END OF PI ENERGY ANALYSIS ......

          -----------------------------------------
          LOWDIN ORBITAL (VO(I,J)**2)*SIGN(VO(I,J))
          -----------------------------------------

                      1          2          3          4          5

                  -10.6314    -0.8100    -0.4614    -0.3076     0.2409

    1  C  1  S    0.965693  -0.020664   0.000000  -0.007998  -0.000000
    2  C  1  S    0.034051   0.497432   0.000000   0.274228   0.000000
    3  C  1  X    0.000000  -0.000000   0.482825  -0.000000  -0.000000
    4  C  1  Y   -0.000000   0.000000  -0.000000   0.000000   1.000000
    5  C  1  Z    0.000028   0.053900  -0.000000  -0.625663  -0.000000
    6  H  2  S    0.000114   0.214002  -0.258587  -0.046055   0.000000
    7  H  3  S    0.000114   0.214002   0.258587  -0.046055   0.000000

                      6          7

                    0.6440     0.6980

    1  C  1  S   -0.000000  -0.005646
    2  C  1  S   -0.000000   0.194289
    3  C  1  X    0.517175  -0.000000
    4  C  1  Y    0.000000  -0.000000
    5  C  1  Z    0.000000   0.320409
    6  H  2  S    0.241413  -0.239828
    7  H  3  S   -0.241413  -0.239828

          ------------------------
          LOWDIN BOND ORDER MATRIX
          ------------------------

                      1          2          3          4          5

    1  C  1  S    1.988709
    2  C  1  S    0.000000   1.611423
    3  C  1  X    0.000000   0.000000   0.965651
    4  C  1  Y    0.000000   0.000000   0.000000   0.000000
    5  C  1  Z    0.000000   0.000000   0.000000   0.000000   1.359182
    6  H  2  S    0.000000   0.000000   0.000000   0.000000   0.000000
    7  H  3  S    0.000000   0.000000   0.000000   0.000000   0.000000

                      6          7

    6  H  2  S    1.037518
    7  H  3  S    0.000000   1.037518

          ---------------------------------------
          MULLIKEN AND LOWDIN POPULATION ANALYSES
          ---------------------------------------

     AO MULLIKEN POPULATIONS IN EACH MOLECULAR ORBITAL

                      1          2          3          4

                  2.000000   2.000000   2.000000   2.000000

    1             1.966225   0.017289   0.000000   0.007723
    2             0.037501   1.115393   0.000000   0.559966
    3             0.000000   0.000000   0.926388   0.000000
    4             0.000000   0.000000   0.000000   0.000000
    5             0.000056   0.120383   0.000000   1.202593
    6            -0.001891   0.373467   0.536806   0.114859
    7            -0.001891   0.373467   0.536806   0.114859

     ATOMIC MULLIKEN POPULATION IN EACH MOLECULAR ORBITAL

                      1          2          3          4

                  2.000000   2.000000   2.000000   2.000000

    1             2.003781   1.253066   0.926388   1.770282
    2            -0.001891   0.373467   0.536806   0.114859
    3            -0.001891   0.373467   0.536806   0.114859

               ----- POPULATIONS IN EACH AO -----
                             MULLIKEN      LOWDIN
              1  C  1  S      1.99124     1.98871
              2  C  1  S      1.71286     1.61142
              3  C  1  X      0.92639     0.96565
              4  C  1  Y      0.00000     0.00000
              5  C  1  Z      1.32303     1.35918
              6  H  2  S      1.02324     1.03752
              7  H  3  S      1.02324     1.03752

          ----- MULLIKEN ATOMIC OVERLAP POPULATIONS -----
          (OFF-DIAGONAL ELEMENTS NEED TO BE MULTIPLIED BY 2)

             1           2           3

    1    5.3349831
    2    0.3092671   0.7459276
    3    0.3092671  -0.0319533   0.7459276

          TOTAL MULLIKEN AND LOWDIN ATOMIC POPULATIONS
       ATOM         MULL.POP.    CHARGE          LOW.POP.     CHARGE
    1 C             5.953517    0.046483         5.924964    0.075036
    2 H             1.023241   -0.023241         1.037518   -0.037518
    3 H             1.023241   -0.023241         1.037518   -0.037518

          -------------------------------
          BOND ORDER AND VALENCE ANALYSIS     BOND ORDER THRESHOLD=0.050
          -------------------------------

                   BOND                       BOND                       BOND
  ATOM PAIR DIST  ORDER      ATOM PAIR DIST  ORDER      ATOM PAIR DIST  ORDER
    1   2  1.156  0.997        1   3  1.156  0.997

                       TOTAL       BONDED        FREE
      ATOM            VALENCE     VALENCE     VALENCE
    1 C                 1.994       1.994      -0.000
    2 H                 0.999       0.999       0.000
    3 H                 0.999       0.999       0.000

          ---------------------
          ELECTROSTATIC MOMENTS
          ---------------------

 POINT   1           X           Y           Z (BOHR)    CHARGE
                 0.000000    0.000000   -0.168199        0.00 (A.U.)
         DX          DY          DZ         /D/  (DEBYE)
     0.000000   -0.000000    1.333440    1.333440
 ...... END OF PROPERTY EVALUATION ......
 STEP CPU TIME =     0.01 TOTAL CPU TIME =        0.0 (    0.0 MIN)
 TOTAL WALL CLOCK TIME=        0.1 SECONDS, CPU UTILIZATION IS  33.33%

 BEGINNING ONE ELECTRON GRADIENT...
 ..... END OF 1-ELECTRON GRADIENT ......
 STEP CPU TIME =     0.00 TOTAL CPU TIME =        0.0 (    0.0 MIN)
 TOTAL WALL CLOCK TIME=        0.1 SECONDS, CPU UTILIZATION IS  33.33%

          ----------------------
          GRADIENT OF THE ENERGY
          ----------------------
 THE COARSE/FINE SCHWARZ SCREENINGS SKIPPED            0/           0 BLOCKS.
 THE NUMBER OF GRADIENT INTEGRAL BLOCKS COMPUTED WAS        27
 ...... END OF 2-ELECTRON GRADIENT ......
 STEP CPU TIME =     0.00 TOTAL CPU TIME =        0.0 (    0.0 MIN)
 TOTAL WALL CLOCK TIME=        0.1 SECONDS, CPU UTILIZATION IS  33.33%

          NSERCH=  1     ENERGY=     -37.2351919

                                 -----------------------
                                 GRADIENT (HARTREE/BOHR)
                                 -----------------------
        ATOM     ZNUC       DE/DX         DE/DY         DE/DZ
 --------------------------------------------------------------
    1  C            6.0     0.0000000     0.0000000    -0.0489362
    2  H            1.0    -0.0071666     0.0000000     0.0244681
    3  H            1.0     0.0071666     0.0000000     0.0244681

          MAXIMUM GRADIENT = 0.0489362    RMS GRADIENT = 0.0202617

 NSERCH:   1  E=      -37.2351919062  GRAD. MAX=  0.0489362  R.M.S.=  0.0202617

          HESSIAN UPDATED USING THE BFGS FORMULA
             ACTUAL ENERGY CHANGE WAS  -0.0029241047
          PREDICTED ENERGY CHANGE WAS  -0.0142400047 RATIO=  0.205
          MIN SEARCH, CORRECT HESSIAN, TRYING PURE NR STEP
               NR STEP HAS LENGTH         =   0.131793
          RADIUS OF STEP TAKEN=   0.13179  CURRENT TRUST RADIUS=   0.30000

 BEGINNING GEOMETRY SEARCH POINT NSERCH=   2 ...

 COORDINATES OF SYMMETRY UNIQUE ATOMS (ANGS)
   ATOM   CHARGE       X              Y              Z
 ------------------------------------------------------------
 C           6.0   0.0000000000   0.0000000000  -0.1538384659
 H           1.0   0.8629220395   0.0000000000   0.5672489212
 COORDINATES OF ALL ATOMS ARE (ANGS)
   ATOM   CHARGE       X              Y              Z
 ------------------------------------------------------------
 C           6.0   0.0000000000   0.0000000000  -0.1538384659
 H           1.0  -0.8629220395   0.0000000000   0.5672489212
 H           1.0   0.8629220395   0.0000000000   0.5672489212

 THE CURRENT FULLY SUBSTITUTED Z-MATRIX IS
 C   
 H      1   1.1245450
 H      1   1.1245450  2   100.2334141

          INTERNUCLEAR DISTANCES (ANGS.)
          ------------------------------

                1 C          2 H          3 H     

   1 C       0.0000000    1.1245450 *  1.1245450 *
   2 H       1.1245450 *  0.0000000    1.7258441 *
   3 H       1.1245450 *  1.7258441 *  0.0000000  

  * ... LESS THAN  3.000


          ********************
          1 ELECTRON INTEGRALS
          ********************
 ...... END OF ONE-ELECTRON INTEGRALS ......
 STEP CPU TIME =     0.00 TOTAL CPU TIME =        0.0 (    0.0 MIN)
 TOTAL WALL CLOCK TIME=        0.1 SECONDS, CPU UTILIZATION IS  33.33%

          --------------------
          2 ELECTRON INTEGRALS
          --------------------

 THE -PK- OPTION IS OFF, THE INTEGRALS ARE NOT IN SUPERMATRIX FORM.
 STORING   15000 INTEGRALS/RECORD ON DISK, USING 12 BYTES/INTEGRAL.
 TWO ELECTRON INTEGRAL EVALUATION REQUIRES   89366 WORDS OF MEMORY.
 II,JST,KST,LST =  1  1  1  1 NREC =         1 INTLOC =    1
 II,JST,KST,LST =  2  1  1  1 NREC =         1 INTLOC =    2
 II,JST,KST,LST =  3  1  1  1 NREC =         1 INTLOC =   34
 II,JST,KST,LST =  4  1  1  1 NREC =         1 INTLOC =   34
 TOTAL NUMBER OF NONZERO TWO-ELECTRON INTEGRALS =                 141
          1 INTEGRAL RECORDS WERE STORED ON DISK FILE  8.
  ...... END OF TWO-ELECTRON INTEGRALS .....
 STEP CPU TIME =     0.00 TOTAL CPU TIME =        0.0 (    0.0 MIN)
 TOTAL WALL CLOCK TIME=        0.1 SECONDS, CPU UTILIZATION IS  33.33%

          --------------------------
                 RHF SCF CALCULATION
          --------------------------

     NUCLEAR ENERGY =         5.9534605232
     MAXIT =   30     NPUNCH=    1
     EXTRAP=T  DAMP=F  SHIFT=F  RSTRCT=F  DIIS=F  DEM=F  SOSCF=F
     DENSITY MATRIX CONV=  2.00E-04
     MEMORY REQUIRED FOR RHF ITERS=     30441 WORDS.

 ITER EX DEM     TOTAL ENERGY        E CHANGE  DENSITY CHANGE    DIIS ERROR
   1  0  0      -37.2374313606   -37.2374313606   0.040583893   0.000000000
   2  1  0      -37.2379258330    -0.0004944724   0.015062559   0.000000000
   3  2  0      -37.2379920938    -0.0000662608   0.005615358   0.000000000
   4  3  0      -37.2380019721    -0.0000098783   0.002124490   0.000000000
   5  0  0      -37.2380034592    -0.0000014871   0.001324595   0.000000000
   6  1  0      -37.2380037239    -0.0000002647   0.000002420   0.000000000
   7  2  0      -37.2380037239    -0.0000000000   0.000000759   0.000000000

          -----------------
          DENSITY CONVERGED
          -----------------
     TIME TO FORM FOCK OPERATORS=       0.0 SECONDS (       0.0 SEC/ITER)
     TIME TO SOLVE SCF EQUATIONS=       0.0 SECONDS (       0.0 SEC/ITER)

 FINAL RHF ENERGY IS      -37.2380037239 AFTER   7 ITERATIONS

          ------------
          EIGENVECTORS
          ------------

                      1          2          3          4          5
                  -10.6270    -0.8163    -0.4864    -0.2962     0.2425
                     A1         A1         B1         A1         B2  
    1  C  1  S    0.983980  -0.242972   0.000000   0.175060   0.000000
    2  C  1  S    0.061555   0.650888   0.000000  -0.673212   0.000000
    3  C  1  X    0.000000   0.000000   0.531563   0.000000   0.000000
    4  C  1  Y    0.000000   0.000000   0.000000   0.000000   1.000000
    5  C  1  Z    0.011605   0.174620   0.000000   0.727530   0.000000
    6  H  2  S   -0.015561   0.281348  -0.471601   0.245654   0.000000
    7  H  3  S   -0.015561   0.281348   0.471601   0.245654   0.000000

                      6          7
                    0.6969     0.7135
                     B1         A1  
    1  C  1  S    0.000000  -0.204678
    2  C  1  S    0.000000   1.031423
    3  C  1  X    1.068663   0.000000
    4  C  1  Y    0.000000   0.000000
    5  C  1  Z    0.000000   0.865573
    6  H  2  S    0.801738  -0.873134
    7  H  3  S   -0.801738  -0.873134

          --------------
          DENSITY MATRIX
          --------------

                      1          2          3          4          5

    1  C  1  S    2.115798
    2  C  1  S   -0.430863   1.761315
    3  C  1  X    0.000000   0.000000   0.565118
    4  C  1  Y    0.000000   0.000000   0.000000   0.000000
    5  C  1  Z    0.192706  -0.750819   0.000000   0.000000   1.119855
    6  H  2  S   -0.081335   0.033582  -0.501371   0.000000   0.455339
    7  H  3  S   -0.081335   0.033582   0.501371   0.000000   0.455339

                      6          7

    6  H  2  S    0.724305
    7  H  3  S   -0.165324   0.724305
 ...... END OF RHF CALCULATION ......
 STEP CPU TIME =     0.00 TOTAL CPU TIME =        0.0 (    0.0 MIN)
 TOTAL WALL CLOCK TIME=        0.1 SECONDS, CPU UTILIZATION IS  33.33%

     ----------------------------------------------------------------
     PROPERTY VALUES FOR THE RHF   SELF-CONSISTENT FIELD WAVEFUNCTION
     ----------------------------------------------------------------

          -----------------
          ENERGY COMPONENTS
          -----------------

         WAVEFUNCTION NORMALIZATION =       1.0000000000

                ONE ELECTRON ENERGY =     -61.9312058902
                TWO ELECTRON ENERGY =      18.7397416431
           NUCLEAR REPULSION ENERGY =       5.9534605232
                                      ------------------
                       TOTAL ENERGY =     -37.2380037239

 ELECTRON-ELECTRON POTENTIAL ENERGY =      18.7397416431
  NUCLEUS-ELECTRON POTENTIAL ENERGY =     -99.1116114952
   NUCLEUS-NUCLEUS POTENTIAL ENERGY =       5.9534605232
                                      ------------------
             TOTAL POTENTIAL ENERGY =     -74.4184093289
               TOTAL KINETIC ENERGY =      37.1804056050
                 VIRIAL RATIO (V/T) =       2.0015491525

  ...... PI ENERGY ANALYSIS ......

 ENERGY ANALYSIS:
            FOCK ENERGY=    -24.4517226464
          BARE H ENERGY=    -61.9312058902
     ELECTRONIC ENERGY =    -43.1914642683
         KINETIC ENERGY=     37.1804056050
          N-N REPULSION=      5.9534605232
           TOTAL ENERGY=    -37.2380037451
        SIGMA PART(1+2)=    -43.1914642683
               (K,V1,2)=     37.1804056050    -99.1116114952     18.7397416219
           PI PART(1+2)=      0.0000000000
               (K,V1,2)=      0.0000000000      0.0000000000      0.0000000000
  SIGMA SKELETON, ERROR=    -37.2380037451      0.0000000000
             MIXED PART= 0.00000E+00 0.00000E+00 0.00000E+00 0.00000E+00
 ...... END OF PI ENERGY ANALYSIS ......

          -----------------------------------------
          LOWDIN ORBITAL (VO(I,J)**2)*SIGN(VO(I,J))
          -----------------------------------------

                      1          2          3          4          5

                  -10.6270    -0.8163    -0.4864    -0.2962     0.2425

    1  C  1  S    0.965518  -0.020854   0.000000  -0.007488  -0.000000
    2  C  1  S    0.034169   0.491179   0.000000   0.258083   0.000000
    3  C  1  X    0.000000   0.000000   0.479363   0.000000   0.000000
    4  C  1  Y   -0.000000   0.000000  -0.000000   0.000000   1.000000
    5  C  1  Z    0.000027   0.053057  -0.000000  -0.658595  -0.000000
    6  H  2  S    0.000143   0.217455  -0.260318  -0.037917   0.000000
    7  H  3  S    0.000143   0.217455   0.260318  -0.037917   0.000000

                      6          7

                    0.6969     0.7135

    1  C  1  S   -0.000000  -0.006140
    2  C  1  S    0.000000   0.216569
    3  C  1  X    0.520637   0.000000
    4  C  1  Y    0.000000  -0.000000
    5  C  1  Z    0.000000   0.288322
    6  H  2  S    0.239682  -0.244485
    7  H  3  S   -0.239682  -0.244485

          ------------------------
          LOWDIN BOND ORDER MATRIX
          ------------------------

                      1          2          3          4          5

    1  C  1  S    1.987721
    2  C  1  S    0.000000   1.566862
    3  C  1  X    0.000000   0.000000   0.958726
    4  C  1  Y    0.000000   0.000000   0.000000   0.000000
    5  C  1  Z    0.000000   0.000000   0.000000   0.000000   1.423357
    6  H  2  S    0.000000   0.000000   0.000000   0.000000   0.000000
    7  H  3  S    0.000000   0.000000   0.000000   0.000000   0.000000

                      6          7

    6  H  2  S    1.031667
    7  H  3  S    0.000000   1.031667

          ---------------------------------------
          MULLIKEN AND LOWDIN POPULATION ANALYSES
          ---------------------------------------

     AO MULLIKEN POPULATIONS IN EACH MOLECULAR ORBITAL

                      1          2          3          4

                  2.000000   2.000000   2.000000   2.000000

    1             1.965733   0.017403   0.000000   0.007232
    2             0.038494   1.105568   0.000000   0.532408
    3             0.000000   0.000000   0.916349   0.000000
    4             0.000000   0.000000   0.000000   0.000000
    5             0.000058   0.118504   0.000000   1.267847
    6            -0.002143   0.379263   0.541825   0.096257
    7            -0.002143   0.379263   0.541825   0.096257

     ATOMIC MULLIKEN POPULATION IN EACH MOLECULAR ORBITAL

                      1          2          3          4

                  2.000000   2.000000   2.000000   2.000000

    1             2.004285   1.241475   0.916349   1.807487
    2            -0.002143   0.379263   0.541825   0.096257
    3            -0.002143   0.379263   0.541825   0.096257

               ----- POPULATIONS IN EACH AO -----
                             MULLIKEN      LOWDIN
              1  C  1  S      1.99037     1.98772
              2  C  1  S      1.67647     1.56686
              3  C  1  X      0.91635     0.95873
              4  C  1  Y      0.00000     0.00000
              5  C  1  Z      1.38641     1.42336
              6  H  2  S      1.01520     1.03167
              7  H  3  S      1.01520     1.03167

          ----- MULLIKEN ATOMIC OVERLAP POPULATIONS -----
          (OFF-DIAGONAL ELEMENTS NEED TO BE MULTIPLIED BY 2)

             1           2           3

    1    5.3293712
    2    0.3201123   0.7243047
    3    0.3201123  -0.0292149   0.7243047

          TOTAL MULLIKEN AND LOWDIN ATOMIC POPULATIONS
       ATOM         MULL.POP.    CHARGE          LOW.POP.     CHARGE
    1 C             5.969596    0.030404         5.936666    0.063334
    2 H             1.015202   -0.015202         1.031667   -0.031667
    3 H             1.015202   -0.015202         1.031667   -0.031667

          -------------------------------
          BOND ORDER AND VALENCE ANALYSIS     BOND ORDER THRESHOLD=0.050
          -------------------------------

                   BOND                       BOND                       BOND
  ATOM PAIR DIST  ORDER      ATOM PAIR DIST  ORDER      ATOM PAIR DIST  ORDER
    1   2  1.125  0.995        1   3  1.125  0.995

                       TOTAL       BONDED        FREE
      ATOM            VALENCE     VALENCE     VALENCE
    1 C                 1.990       1.990      -0.000
    2 H                 1.000       1.000      -0.000
    3 H                 1.000       1.000      -0.000

          ---------------------
          ELECTROSTATIC MOMENTS
          ---------------------

 POINT   1           X           Y           Z (BOHR)    CHARGE
                 0.000000    0.000000   -0.094743        0.00 (A.U.)
         DX          DY          DZ         /D/  (DEBYE)
     0.000000   -0.000000    1.419829    1.419829
 ...... END OF PROPERTY EVALUATION ......
 STEP CPU TIME =     0.00 TOTAL CPU TIME =        0.0 (    0.0 MIN)
 TOTAL WALL CLOCK TIME=        0.1 SECONDS, CPU UTILIZATION IS  30.77%

 BEGINNING ONE ELECTRON GRADIENT...
 ..... END OF 1-ELECTRON GRADIENT ......
 STEP CPU TIME =     0.00 TOTAL CPU TIME =        0.0 (    0.0 MIN)
 TOTAL WALL CLOCK TIME=        0.1 SECONDS, CPU UTILIZATION IS  30.77%

          ----------------------
          GRADIENT OF THE ENERGY
          ----------------------
 THE COARSE/FINE SCHWARZ SCREENINGS SKIPPED            0/           0 BLOCKS.
 THE NUMBER OF GRADIENT INTEGRAL BLOCKS COMPUTED WAS        27
 ...... END OF 2-ELECTRON GRADIENT ......
 STEP CPU TIME =     0.00 TOTAL CPU TIME =        0.0 (    0.0 MIN)
 TOTAL WALL CLOCK TIME=        0.1 SECONDS, CPU UTILIZATION IS  30.77%

          NSERCH=  2     ENERGY=     -37.2380037

                                 -----------------------
                                 GRADIENT (HARTREE/BOHR)
                                 -----------------------
        ATOM     ZNUC       DE/DX         DE/DY         DE/DZ
 --------------------------------------------------------------
    1  C            6.0     0.0000000     0.0000000     0.0025260
    2  H            1.0    -0.0017136     0.0000000    -0.0012630
    3  H            1.0     0.0017136     0.0000000    -0.0012630

          MAXIMUM GRADIENT = 0.0025260    RMS GRADIENT = 0.0013100

 NSERCH:   2  E=      -37.2380037239  GRAD. MAX=  0.0025260  R.M.S.=  0.0013100

          HESSIAN UPDATED USING THE BFGS FORMULA
             ACTUAL ENERGY CHANGE WAS  -0.0028118177
          PREDICTED ENERGY CHANGE WAS  -0.0031087078 RATIO=  0.904
          MIN SEARCH, CORRECT HESSIAN, TRYING PURE NR STEP
               NR STEP HAS LENGTH         =   0.023667
          RADIUS OF STEP TAKEN=   0.02367  CURRENT TRUST RADIUS=   0.26359

 BEGINNING GEOMETRY SEARCH POINT NSERCH=   3 ...

 COORDINATES OF SYMMETRY UNIQUE ATOMS (ANGS)
   ATOM   CHARGE       X              Y              Z
 ------------------------------------------------------------
 C           6.0   0.0000000000   0.0000000000  -0.1584650876
 H           1.0   0.8550244776   0.0000000000   0.5695622320
 COORDINATES OF ALL ATOMS ARE (ANGS)
   ATOM   CHARGE       X              Y              Z
 ------------------------------------------------------------
 C           6.0   0.0000000000   0.0000000000  -0.1584650876
 H           1.0  -0.8550244776   0.0000000000   0.5695622320
 H           1.0   0.8550244776   0.0000000000   0.5695622320

 THE CURRENT FULLY SUBSTITUTED Z-MATRIX IS
 C   
 H      1   1.1229829
 H      1   1.1229829  2    99.1732330

          INTERNUCLEAR DISTANCES (ANGS.)
          ------------------------------

                1 C          2 H          3 H     

   1 C       0.0000000    1.1229829 *  1.1229829 *
   2 H       1.1229829 *  0.0000000    1.7100490 *
   3 H       1.1229829 *  1.7100490 *  0.0000000  

  * ... LESS THAN  3.000


          ********************
          1 ELECTRON INTEGRALS
          ********************
 ...... END OF ONE-ELECTRON INTEGRALS ......
 STEP CPU TIME =     0.00 TOTAL CPU TIME =        0.0 (    0.0 MIN)
 TOTAL WALL CLOCK TIME=        0.1 SECONDS, CPU UTILIZATION IS  30.77%

          --------------------
          2 ELECTRON INTEGRALS
          --------------------

 THE -PK- OPTION IS OFF, THE INTEGRALS ARE NOT IN SUPERMATRIX FORM.
 STORING   15000 INTEGRALS/RECORD ON DISK, USING 12 BYTES/INTEGRAL.
 TWO ELECTRON INTEGRAL EVALUATION REQUIRES   89366 WORDS OF MEMORY.
 II,JST,KST,LST =  1  1  1  1 NREC =         1 INTLOC =    1
 II,JST,KST,LST =  2  1  1  1 NREC =         1 INTLOC =    2
 II,JST,KST,LST =  3  1  1  1 NREC =         1 INTLOC =   34
 II,JST,KST,LST =  4  1  1  1 NREC =         1 INTLOC =   34
 TOTAL NUMBER OF NONZERO TWO-ELECTRON INTEGRALS =                 141
          1 INTEGRAL RECORDS WERE STORED ON DISK FILE  8.
  ...... END OF TWO-ELECTRON INTEGRALS .....
 STEP CPU TIME =     0.00 TOTAL CPU TIME =        0.0 (    0.0 MIN)
 TOTAL WALL CLOCK TIME=        0.1 SECONDS, CPU UTILIZATION IS  30.77%

          --------------------------
                 RHF SCF CALCULATION
          --------------------------

     NUCLEAR ENERGY =         5.9641474968
     MAXIT =   30     NPUNCH=    1
     EXTRAP=T  DAMP=F  SHIFT=F  RSTRCT=F  DIIS=F  DEM=F  SOSCF=F
     DENSITY MATRIX CONV=  1.00E-05
     MEMORY REQUIRED FOR RHF ITERS=     30441 WORDS.

 ITER EX DEM     TOTAL ENERGY        E CHANGE  DENSITY CHANGE    DIIS ERROR
   1  0  0      -37.2380297186   -37.2380297186   0.004063166   0.000000000
   2  1  0      -37.2380345272    -0.0000048086   0.001483445   0.000000000
   3  2  0      -37.2380351781    -0.0000006510   0.000551399   0.000000000
   4  3  0      -37.2380352747    -0.0000000966   0.000208073   0.000000000
   5  4  0      -37.2380352891    -0.0000000144   0.000079258   0.000000000
   6  5  0      -37.2380352913    -0.0000000022   0.000030378   0.000000000
   7  6  0      -37.2380352916    -0.0000000003   0.000011691   0.000000000
   8  7  0      -37.2380352917    -0.0000000000   0.000004511   0.000000000

          -----------------
          DENSITY CONVERGED
          -----------------
     TIME TO FORM FOCK OPERATORS=       0.0 SECONDS (       0.0 SEC/ITER)
     TIME TO SOLVE SCF EQUATIONS=       0.0 SECONDS (       0.0 SEC/ITER)

 FINAL RHF ENERGY IS      -37.2380352917 AFTER   8 ITERATIONS

          ------------
          EIGENVECTORS
          ------------

                      1          2          3          4          5
                  -10.6277    -0.8181    -0.4850    -0.2981     0.2420
                     A1         A1         B1         A1         B2  
    1  C  1  S    0.983973  -0.242581   0.000000   0.176155   0.000000
    2  C  1  S    0.061619   0.649277   0.000000  -0.677165   0.000000
    3  C  1  X    0.000000   0.000000   0.533094   0.000000   0.000000
    4  C  1  Y    0.000000   0.000000   0.000000   0.000000   1.000000
    5  C  1  Z    0.011746   0.176057   0.000000   0.724125   0.000000
    6  H  2  S   -0.015601   0.281242  -0.472393   0.245903   0.000000
    7  H  3  S   -0.015601   0.281242   0.472393   0.245903   0.000000

                      6          7
                    0.6943     0.7187
                     B1         A1  
    1  C  1  S    0.000000  -0.204440
    2  C  1  S    0.000000   1.032313
    3  C  1  X    1.065781   0.000000
    4  C  1  Y    0.000000   0.000000
    5  C  1  Z    0.000000   0.872867
    6  H  2  S    0.802685  -0.874181
    7  H  3  S   -0.802685  -0.874181

          --------------
          DENSITY MATRIX
          --------------

                      1          2          3          4          5

    1  C  1  S    2.116158
    2  C  1  S   -0.432315   1.767820
    3  C  1  X    0.000000   0.000000   0.568379
    4  C  1  Y    0.000000   0.000000   0.000000   0.000000
    5  C  1  Z    0.192815  -0.750638   0.000000   0.000000   1.110981
    6  H  2  S   -0.080516   0.030251  -0.503660   0.000000   0.454792
    7  H  3  S   -0.080516   0.030251   0.503660   0.000000   0.454792

                      6          7

    6  H  2  S    0.725929
    7  H  3  S   -0.166693   0.725929
 ...... END OF RHF CALCULATION ......
 STEP CPU TIME =     0.00 TOTAL CPU TIME =        0.0 (    0.0 MIN)
 TOTAL WALL CLOCK TIME=        0.1 SECONDS, CPU UTILIZATION IS  30.77%

     ----------------------------------------------------------------
     PROPERTY VALUES FOR THE RHF   SELF-CONSISTENT FIELD WAVEFUNCTION
     ----------------------------------------------------------------

          -----------------
          ENERGY COMPONENTS
          -----------------

         WAVEFUNCTION NORMALIZATION =       1.0000000000

                ONE ELECTRON ENERGY =     -61.9466965807
                TWO ELECTRON ENERGY =      18.7445137923
           NUCLEAR REPULSION ENERGY =       5.9641474968
                                      ------------------
                       TOTAL ENERGY =     -37.2380352917

 ELECTRON-ELECTRON POTENTIAL ENERGY =      18.7445137923
  NUCLEUS-ELECTRON POTENTIAL ENERGY =     -99.1310338868
   NUCLEUS-NUCLEUS POTENTIAL ENERGY =       5.9641474968
                                      ------------------
             TOTAL POTENTIAL ENERGY =     -74.4223725977
               TOTAL KINETIC ENERGY =      37.1843373060
                 VIRIAL RATIO (V/T) =       2.0014441023

  ...... PI ENERGY ANALYSIS ......

 ENERGY ANALYSIS:
            FOCK ENERGY=    -24.4576689141
          BARE H ENERGY=    -61.9466965807
     ELECTRONIC ENERGY =    -43.2021827474
         KINETIC ENERGY=     37.1843373060
          N-N REPULSION=      5.9641474968
           TOTAL ENERGY=    -37.2380352506
        SIGMA PART(1+2)=    -43.2021827474
               (K,V1,2)=     37.1843373060    -99.1310338868     18.7445138333
           PI PART(1+2)=      0.0000000000
               (K,V1,2)=      0.0000000000      0.0000000000      0.0000000000
  SIGMA SKELETON, ERROR=    -37.2380352506     -0.0000000000
             MIXED PART= 0.00000E+00 0.00000E+00 0.00000E+00 0.00000E+00
 ...... END OF PI ENERGY ANALYSIS ......

          -----------------------------------------
          LOWDIN ORBITAL (VO(I,J)**2)*SIGN(VO(I,J))
          -----------------------------------------

                      1          2          3          4          5

                  -10.6277    -0.8181    -0.4850    -0.2981     0.2420

    1  C  1  S    0.965515  -0.020798   0.000000  -0.007588  -0.000000
    2  C  1  S    0.034169   0.488970  -0.000000   0.261471   0.000000
    3  C  1  X   -0.000000  -0.000000   0.480730  -0.000000  -0.000000
    4  C  1  Y   -0.000000   0.000000  -0.000000   0.000000   1.000000
    5  C  1  Z    0.000027   0.053976   0.000000  -0.654921  -0.000000
    6  H  2  S    0.000145   0.218128  -0.259635  -0.038010   0.000000
    7  H  3  S    0.000145   0.218128   0.259635  -0.038010  -0.000000

                      6          7

                    0.6943     0.7187

    1  C  1  S   -0.000000  -0.006100
    2  C  1  S    0.000000   0.215390
    3  C  1  X    0.519270   0.000000
    4  C  1  Y    0.000000  -0.000000
    5  C  1  Z   -0.000000   0.291075
    6  H  2  S    0.240365  -0.243718
    7  H  3  S   -0.240365  -0.243718

          ------------------------
          LOWDIN BOND ORDER MATRIX
          ------------------------

                      1          2          3          4          5

    1  C  1  S    1.987800
    2  C  1  S    0.000000   1.569220
    3  C  1  X    0.000000   0.000000   0.961459
    4  C  1  Y    0.000000   0.000000   0.000000   0.000000
    5  C  1  Z    0.000000   0.000000   0.000000   0.000000   1.417849
    6  H  2  S    0.000000   0.000000   0.000000   0.000000   0.000000
    7  H  3  S    0.000000   0.000000   0.000000   0.000000   0.000000

                      6          7

    6  H  2  S    1.031835
    7  H  3  S    0.000000   1.031835

          ---------------------------------------
          MULLIKEN AND LOWDIN POPULATION ANALYSES
          ---------------------------------------

     AO MULLIKEN POPULATIONS IN EACH MOLECULAR ORBITAL

                      1          2          3          4

                  2.000000   2.000000   2.000000   2.000000

    1             1.965718   0.017353   0.000000   0.007328
    2             0.038534   1.101408   0.000000   0.539570
    3             0.000000   0.000000   0.918871   0.000000
    4             0.000000   0.000000   0.000000   0.000000
    5             0.000059   0.120670   0.000000   1.259730
    6            -0.002155   0.380285   0.540564   0.096686
    7            -0.002155   0.380285   0.540564   0.096686

     ATOMIC MULLIKEN POPULATION IN EACH MOLECULAR ORBITAL

                      1          2          3          4

                  2.000000   2.000000   2.000000   2.000000

    1             2.004310   1.239431   0.918871   1.806628
    2            -0.002155   0.380285   0.540564   0.096686
    3            -0.002155   0.380285   0.540564   0.096686

               ----- POPULATIONS IN EACH AO -----
                             MULLIKEN      LOWDIN
              1  C  1  S      1.99040     1.98780
              2  C  1  S      1.67951     1.56922
              3  C  1  X      0.91887     0.96146
              4  C  1  Y      0.00000     0.00000
              5  C  1  Z      1.38046     1.41785
              6  H  2  S      1.01538     1.03184
              7  H  3  S      1.01538     1.03184

          ----- MULLIKEN ATOMIC OVERLAP POPULATIONS -----
          (OFF-DIAGONAL ELEMENTS NEED TO BE MULTIPLIED BY 2)

             1           2           3

    1    5.3298393
    2    0.3197006   0.7259291
    3    0.3197006  -0.0302500   0.7259291

          TOTAL MULLIKEN AND LOWDIN ATOMIC POPULATIONS
       ATOM         MULL.POP.    CHARGE          LOW.POP.     CHARGE
    1 C             5.969241    0.030759         5.936329    0.063671
    2 H             1.015380   -0.015380         1.031835   -0.031835
    3 H             1.015380   -0.015380         1.031835   -0.031835

          -------------------------------
          BOND ORDER AND VALENCE ANALYSIS     BOND ORDER THRESHOLD=0.050
          -------------------------------

                   BOND                       BOND                       BOND
  ATOM PAIR DIST  ORDER      ATOM PAIR DIST  ORDER      ATOM PAIR DIST  ORDER
    1   2  1.123  0.995        1   3  1.123  0.995

                       TOTAL       BONDED        FREE
      ATOM            VALENCE     VALENCE     VALENCE
    1 C                 1.991       1.991      -0.000
    2 H                 1.000       1.000      -0.000
    3 H                 1.000       1.000      -0.000

          ---------------------
          ELECTROSTATIC MOMENTS
          ---------------------

 POINT   1           X           Y           Z (BOHR)    CHARGE
                 0.000000    0.000000   -0.101600       -0.00 (A.U.)
         DX          DY          DZ         /D/  (DEBYE)
     0.000000   -0.000000    1.415314    1.415314
 ...... END OF PROPERTY EVALUATION ......
 STEP CPU TIME =     0.00 TOTAL CPU TIME =        0.0 (    0.0 MIN)
 TOTAL WALL CLOCK TIME=        0.1 SECONDS, CPU UTILIZATION IS  28.57%

 BEGINNING ONE ELECTRON GRADIENT...
 ..... END OF 1-ELECTRON GRADIENT ......
 STEP CPU TIME =     0.00 TOTAL CPU TIME =        0.0 (    0.0 MIN)
 TOTAL WALL CLOCK TIME=        0.1 SECONDS, CPU UTILIZATION IS  28.57%

          ----------------------
          GRADIENT OF THE ENERGY
          ----------------------
 THE COARSE/FINE SCHWARZ SCREENINGS SKIPPED            0/           0 BLOCKS.
 THE NUMBER OF GRADIENT INTEGRAL BLOCKS COMPUTED WAS        27
 ...... END OF 2-ELECTRON GRADIENT ......
 STEP CPU TIME =     0.00 TOTAL CPU TIME =        0.0 (    0.0 MIN)
 TOTAL WALL CLOCK TIME=        0.1 SECONDS, CPU UTILIZATION IS  28.57%

          NSERCH=  3     ENERGY=     -37.2380353

                                 -----------------------
                                 GRADIENT (HARTREE/BOHR)
                                 -----------------------
        ATOM     ZNUC       DE/DX         DE/DY         DE/DZ
 --------------------------------------------------------------
    1  C            6.0     0.0000000     0.0000000     0.0011734
    2  H            1.0     0.0012295     0.0000000    -0.0005867
    3  H            1.0    -0.0012295     0.0000000    -0.0005867

          MAXIMUM GRADIENT = 0.0012295    RMS GRADIENT = 0.0007519

 NSERCH:   3  E=      -37.2380352917  GRAD. MAX=  0.0012295  R.M.S.=  0.0007519

          HESSIAN UPDATED USING THE BFGS FORMULA
             ACTUAL ENERGY CHANGE WAS  -0.0000315678
          PREDICTED ENERGY CHANGE WAS  -0.0000421384 RATIO=  0.749
          MIN SEARCH, CORRECT HESSIAN, TRYING PURE NR STEP
               NR STEP HAS LENGTH         =   0.005374
          RADIUS OF STEP TAKEN=   0.00537  CURRENT TRUST RADIUS=   0.05000

 BEGINNING GEOMETRY SEARCH POINT NSERCH=   4 ...

 COORDINATES OF SYMMETRY UNIQUE ATOMS (ANGS)
   ATOM   CHARGE       X              Y              Z
 ------------------------------------------------------------
 C           6.0   0.0000000000   0.0000000000  -0.1587089267
 H           1.0   0.8570243033   0.0000000000   0.5696841516
 COORDINATES OF ALL ATOMS ARE (ANGS)
   ATOM   CHARGE       X              Y              Z
 ------------------------------------------------------------
 C           6.0   0.0000000000   0.0000000000  -0.1587089267
 H           1.0  -0.8570243033   0.0000000000   0.5696841516
 H           1.0   0.8570243033   0.0000000000   0.5696841516

 THE CURRENT FULLY SUBSTITUTED Z-MATRIX IS
 C   
 H      1   1.1247431
 H      1   1.1247431  2    99.2769492

          INTERNUCLEAR DISTANCES (ANGS.)
          ------------------------------

                1 C          2 H          3 H     

   1 C       0.0000000    1.1247431 *  1.1247431 *
   2 H       1.1247431 *  0.0000000    1.7140486 *
   3 H       1.1247431 *  1.7140486 *  0.0000000  

  * ... LESS THAN  3.000


          ********************
          1 ELECTRON INTEGRALS
          ********************
 ...... END OF ONE-ELECTRON INTEGRALS ......
 STEP CPU TIME =     0.00 TOTAL CPU TIME =        0.0 (    0.0 MIN)
 TOTAL WALL CLOCK TIME=        0.1 SECONDS, CPU UTILIZATION IS  28.57%

          --------------------
          2 ELECTRON INTEGRALS
          --------------------

 THE -PK- OPTION IS OFF, THE INTEGRALS ARE NOT IN SUPERMATRIX FORM.
 STORING   15000 INTEGRALS/RECORD ON DISK, USING 12 BYTES/INTEGRAL.
 TWO ELECTRON INTEGRAL EVALUATION REQUIRES   89366 WORDS OF MEMORY.
 II,JST,KST,LST =  1  1  1  1 NREC =         1 INTLOC =    1
 II,JST,KST,LST =  2  1  1  1 NREC =         1 INTLOC =    2
 II,JST,KST,LST =  3  1  1  1 NREC =         1 INTLOC =   34
 II,JST,KST,LST =  4  1  1  1 NREC =         1 INTLOC =   34
 TOTAL NUMBER OF NONZERO TWO-ELECTRON INTEGRALS =                 141
          1 INTEGRAL RECORDS WERE STORED ON DISK FILE  8.
  ...... END OF TWO-ELECTRON INTEGRALS .....
 STEP CPU TIME =     0.00 TOTAL CPU TIME =        0.0 (    0.0 MIN)
 TOTAL WALL CLOCK TIME=        0.1 SECONDS, CPU UTILIZATION IS  28.57%

          --------------------------
                 RHF SCF CALCULATION
          --------------------------

     NUCLEAR ENERGY =         5.9545758105
     MAXIT =   30     NPUNCH=    1
     EXTRAP=T  DAMP=F  SHIFT=F  RSTRCT=F  DIIS=F  DEM=F  SOSCF=F
     DENSITY MATRIX CONV=  1.00E-05
     MEMORY REQUIRED FOR RHF ITERS=     30441 WORDS.

 ITER EX DEM     TOTAL ENERGY        E CHANGE  DENSITY CHANGE    DIIS ERROR
   1  0  0      -37.2380395298   -37.2380395298   0.000180617   0.000000000
   2  1  0      -37.2380396296    -0.0000000998   0.000070373   0.000000000
   3  2  0      -37.2380396310    -0.0000000014   0.000023843   0.000000000
   4  3  0      -37.2380396312    -0.0000000001   0.000008226   0.000000000
   5  4  0      -37.2380396312    -0.0000000000   0.000002927   0.000000000

          -----------------
          DENSITY CONVERGED
          -----------------
     TIME TO FORM FOCK OPERATORS=       0.0 SECONDS (       0.0 SEC/ITER)
     TIME TO SOLVE SCF EQUATIONS=       0.0 SECONDS (       0.0 SEC/ITER)

 FINAL RHF ENERGY IS      -37.2380396312 AFTER   5 ITERATIONS

          ------------
          EIGENVECTORS
          ------------

                      1          2          3          4          5
                  -10.6276    -0.8172    -0.4845    -0.2978     0.2421
                     A1         A1         B1         A1         B2  
    1  C  1  S    0.983984  -0.242716   0.000000   0.175983   0.000000
    2  C  1  S    0.061535   0.650203   0.000000  -0.676417   0.000000
    3  C  1  X    0.000000   0.000000   0.532937   0.000000   0.000000
    4  C  1  Y    0.000000   0.000000   0.000000   0.000000   1.000000
    5  C  1  Z    0.011691   0.175556   0.000000   0.724272   0.000000
    6  H  2  S   -0.015553   0.281161  -0.472355   0.246342   0.000000
    7  H  3  S   -0.015553   0.281161   0.472355   0.246342   0.000000

                      6          7
                    0.6931     0.7163
                     B1         A1  
    1  C  1  S    0.000000  -0.204123
    2  C  1  S    0.000000   1.029265
    3  C  1  X    1.065157   0.000000
    4  C  1  Y    0.000000   0.000000
    5  C  1  Z    0.000000   0.871487
    6  H  2  S    0.801337  -0.872642
    7  H  3  S   -0.801337  -0.872642

          --------------
          DENSITY MATRIX
          --------------

                      1          2          3          4          5

    1  C  1  S    2.116213
    2  C  1  S   -0.432605   1.768180
    3  C  1  X    0.000000   0.000000   0.568043
    4  C  1  Y    0.000000   0.000000   0.000000   0.000000
    5  C  1  Z    0.192707  -0.750087   0.000000   0.000000   1.111054
    6  H  2  S   -0.080388   0.030450  -0.503470   0.000000   0.455193
    7  H  3  S   -0.080388   0.030450   0.503470   0.000000   0.455193

                      6          7

    6  H  2  S    0.726193
    7  H  3  S   -0.166282   0.726193
 ...... END OF RHF CALCULATION ......
 STEP CPU TIME =     0.00 TOTAL CPU TIME =        0.0 (    0.0 MIN)
 TOTAL WALL CLOCK TIME=        0.1 SECONDS, CPU UTILIZATION IS  28.57%

     ----------------------------------------------------------------
     PROPERTY VALUES FOR THE RHF   SELF-CONSISTENT FIELD WAVEFUNCTION
     ----------------------------------------------------------------

          -----------------
          ENERGY COMPONENTS
          -----------------

         WAVEFUNCTION NORMALIZATION =       1.0000000000

                ONE ELECTRON ENERGY =     -61.9307455135
                TWO ELECTRON ENERGY =      18.7381300718
           NUCLEAR REPULSION ENERGY =       5.9545758105
                                      ------------------
                       TOTAL ENERGY =     -37.2380396312

 ELECTRON-ELECTRON POTENTIAL ENERGY =      18.7381300718
  NUCLEUS-ELECTRON POTENTIAL ENERGY =     -99.1137355080
   NUCLEUS-NUCLEUS POTENTIAL ENERGY =       5.9545758105
                                      ------------------
             TOTAL POTENTIAL ENERGY =     -74.4210296257
               TOTAL KINETIC ENERGY =      37.1829899945
                 VIRIAL RATIO (V/T) =       2.0014805059

  ...... PI ENERGY ANALYSIS ......

 ENERGY ANALYSIS:
            FOCK ENERGY=    -24.4544853991
          BARE H ENERGY=    -61.9307455135
     ELECTRONIC ENERGY =    -43.1926154563
         KINETIC ENERGY=     37.1829899945
          N-N REPULSION=      5.9545758105
           TOTAL ENERGY=    -37.2380396458
        SIGMA PART(1+2)=    -43.1926154563
               (K,V1,2)=     37.1829899945    -99.1137355080     18.7381300572
           PI PART(1+2)=      0.0000000000
               (K,V1,2)=      0.0000000000      0.0000000000      0.0000000000
  SIGMA SKELETON, ERROR=    -37.2380396458      0.0000000000
             MIXED PART= 0.00000E+00 0.00000E+00 0.00000E+00 0.00000E+00
 ...... END OF PI ENERGY ANALYSIS ......

          -----------------------------------------
          LOWDIN ORBITAL (VO(I,J)**2)*SIGN(VO(I,J))
          -----------------------------------------

                      1          2          3          4          5

                  -10.6276    -0.8172    -0.4845    -0.2978     0.2421

    1  C  1  S    0.965523  -0.020810   0.000000  -0.007573   0.000000
    2  C  1  S    0.034164   0.490003   0.000000   0.260917  -0.000000
    3  C  1  X    0.000000   0.000000   0.480307   0.000000   0.000000
    4  C  1  Y    0.000000  -0.000000   0.000000  -0.000000   1.000000
    5  C  1  Z    0.000027   0.053691  -0.000000  -0.654956   0.000000
    6  H  2  S    0.000143   0.217748  -0.259846  -0.038277  -0.000000
    7  H  3  S    0.000143   0.217748   0.259846  -0.038277  -0.000000

                      6          7

                    0.6931     0.7163

    1  C  1  S    0.000000  -0.006095
    2  C  1  S    0.000000   0.214915
    3  C  1  X    0.519693  -0.000000
[...]
    2  C  1  S    0.061549   0.650085   0.000000  -0.676409   0.000000
    3  C  1  X    0.000000   0.000000   0.532906   0.000000   0.000000
    4  C  1  Y    0.000000   0.000000   0.000000   0.000000   1.000000
    5  C  1  Z    0.011696   0.175598   0.000000   0.724377   0.000000
    6  H  2  S   -0.015561   0.281181  -0.472331   0.246246   0.000000
    7  H  3  S   -0.015561   0.281181   0.472331   0.246246   0.000000

                      6          7
                    0.6935     0.7166
                     B1         A1  
    1  C  1  S    0.000000  -0.204194
    2  C  1  S    0.000000   1.029830
    3  C  1  X    1.065393   0.000000
    4  C  1  Y    0.000000   0.000000
    5  C  1  Z    0.000000   0.871473
    6  H  2  S    0.801563  -0.872905
    7  H  3  S   -0.801563  -0.872905

          --------------
          DENSITY MATRIX
          --------------

                      1          2          3          4          5

    1  C  1  S    2.116188
    2  C  1  S   -0.432491   1.767855
    3  C  1  X    0.000000   0.000000   0.567979
    4  C  1  Y    0.000000   0.000000   0.000000   0.000000
    5  C  1  Z    0.192724  -0.750203   0.000000   0.000000   1.111388
    6  H  2  S   -0.080445   0.030541  -0.503416   0.000000   0.455136
    7  H  3  S   -0.080445   0.030541   0.503416   0.000000   0.455136

                      6          7

    6  H  2  S    0.726077
    7  H  3  S   -0.166308   0.726077
 ...... END OF RHF CALCULATION ......
 STEP CPU TIME =     0.00 TOTAL CPU TIME =        0.1 (    0.0 MIN)
 TOTAL WALL CLOCK TIME=        0.2 SECONDS, CPU UTILIZATION IS  37.50%

     ----------------------------------------------------------------
     PROPERTY VALUES FOR THE RHF   SELF-CONSISTENT FIELD WAVEFUNCTION
     ----------------------------------------------------------------

          -----------------
          ENERGY COMPONENTS
          -----------------

         WAVEFUNCTION NORMALIZATION =       1.0000000000

                ONE ELECTRON ENERGY =     -61.9332705667
                TWO ELECTRON ENERGY =      18.7391946778
           NUCLEAR REPULSION ENERGY =       5.9560361192
                                      ------------------
                       TOTAL ENERGY =     -37.2380397698

 ELECTRON-ELECTRON POTENTIAL ENERGY =      18.7391946778
  NUCLEUS-ELECTRON POTENTIAL ENERGY =     -99.1163682737
   NUCLEUS-NUCLEUS POTENTIAL ENERGY =       5.9560361192
                                      ------------------
             TOTAL POTENTIAL ENERGY =     -74.4211374768
               TOTAL KINETIC ENERGY =      37.1830977070
                 VIRIAL RATIO (V/T) =       2.0014776085

  ...... PI ENERGY ANALYSIS ......

 ENERGY ANALYSIS:
            FOCK ENERGY=    -24.4548812053
          BARE H ENERGY=    -61.9332705667
     ELECTRONIC ENERGY =    -43.1940758860
         KINETIC ENERGY=     37.1830977070
          N-N REPULSION=      5.9560361192
           TOTAL ENERGY=    -37.2380397668
        SIGMA PART(1+2)=    -43.1940758860
               (K,V1,2)=     37.1830977070    -99.1163682737     18.7391946807
           PI PART(1+2)=      0.0000000000
               (K,V1,2)=      0.0000000000      0.0000000000      0.0000000000
  SIGMA SKELETON, ERROR=    -37.2380397668      0.0000000000
             MIXED PART= 0.00000E+00 0.00000E+00 0.00000E+00 0.00000E+00
 ...... END OF PI ENERGY ANALYSIS ......

          -----------------------------------------
          LOWDIN ORBITAL (VO(I,J)**2)*SIGN(VO(I,J))
          -----------------------------------------

                      1          2          3          4          5

                  -10.6276    -0.8173    -0.4847    -0.2978     0.2421

    1  C  1  S    0.965521  -0.020810  -0.000000  -0.007572  -0.000000
    2  C  1  S    0.034165   0.489887  -0.000000   0.260893  -0.000000
    3  C  1  X   -0.000000   0.000000   0.480336   0.000000   0.000000
    4  C  1  Y   -0.000000  -0.000000   0.000000  -0.000000   1.000000
    5  C  1  Z    0.000027   0.053711   0.000000  -0.655094   0.000000
    6  H  2  S    0.000143   0.217796  -0.259832  -0.038221   0.000000
    7  H  3  S    0.000143   0.217796   0.259832  -0.038221  -0.000000

                      6          7

                    0.6935     0.7166

    1  C  1  S   -0.000000  -0.006097
    2  C  1  S    0.000000   0.215055
    3  C  1  X    0.519664   0.000000
    4  C  1  Y    0.000000   0.000000
    5  C  1  Z   -0.000000   0.291168
    6  H  2  S    0.240168  -0.243840
    7  H  3  S   -0.240168  -0.243840

          ------------------------
          LOWDIN BOND ORDER MATRIX
          ------------------------

                      1          2          3          4          5

    1  C  1  S    1.987805
    2  C  1  S    0.000000   1.569891
    3  C  1  X    0.000000   0.000000   0.960671
    4  C  1  Y    0.000000   0.000000   0.000000   0.000000
    5  C  1  Z    0.000000   0.000000   0.000000   0.000000   1.417664
    6  H  2  S    0.000000   0.000000   0.000000   0.000000   0.000000
    7  H  3  S    0.000000   0.000000   0.000000   0.000000   0.000000

                      6          7

    6  H  2  S    1.031984
    7  H  3  S    0.000000   1.031984

          ---------------------------------------
          MULLIKEN AND LOWDIN POPULATION ANALYSES
          ---------------------------------------

     AO MULLIKEN POPULATIONS IN EACH MOLECULAR ORBITAL

                      1          2          3          4

                  2.000000   2.000000   2.000000   2.000000

    1             1.965738   0.017365   0.000000   0.007313
    2             0.038490   1.103086   0.000000   0.538143
    3             0.000000   0.000000   0.918248   0.000000
    4             0.000000   0.000000   0.000000   0.000000
    5             0.000058   0.120044   0.000000   1.260331
    6            -0.002143   0.379752   0.540876   0.097106
    7            -0.002143   0.379752   0.540876   0.097106

     ATOMIC MULLIKEN POPULATION IN EACH MOLECULAR ORBITAL

                      1          2          3          4

                  2.000000   2.000000   2.000000   2.000000

    1             2.004286   1.240495   0.918248   1.805787
    2            -0.002143   0.379752   0.540876   0.097106
    3            -0.002143   0.379752   0.540876   0.097106

               ----- POPULATIONS IN EACH AO -----
                             MULLIKEN      LOWDIN
              1  C  1  S      1.99042     1.98781
              2  C  1  S      1.67972     1.56989
              3  C  1  X      0.91825     0.96067
              4  C  1  Y      0.00000     0.00000
              5  C  1  Z      1.38043     1.41766
              6  H  2  S      1.01559     1.03198
              7  H  3  S      1.01559     1.03198

          ----- MULLIKEN ATOMIC OVERLAP POPULATIONS -----
          (OFF-DIAGONAL ELEMENTS NEED TO BE MULTIPLIED BY 2)

             1           2           3

    1    5.3298147
    2    0.3195010   0.7260772
    3    0.3195010  -0.0299866   0.7260772

          TOTAL MULLIKEN AND LOWDIN ATOMIC POPULATIONS
       ATOM         MULL.POP.    CHARGE          LOW.POP.     CHARGE
    1 C             5.968817    0.031183         5.936032    0.063968
    2 H             1.015592   -0.015592         1.031984   -0.031984
    3 H             1.015592   -0.015592         1.031984   -0.031984

          -------------------------------
          BOND ORDER AND VALENCE ANALYSIS     BOND ORDER THRESHOLD=0.050
          -------------------------------

                   BOND                       BOND                       BOND
  ATOM PAIR DIST  ORDER      ATOM PAIR DIST  ORDER      ATOM PAIR DIST  ORDER
    1   2  1.124  0.995        1   3  1.124  0.995

                       TOTAL       BONDED        FREE
      ATOM            VALENCE     VALENCE     VALENCE
    1 C                 1.991       1.991      -0.000
    2 H                 1.000       1.000      -0.000
    3 H                 1.000       1.000      -0.000

          ---------------------
          ELECTROSTATIC MOMENTS
          ---------------------

 POINT   1           X           Y           Z (BOHR)    CHARGE
                 0.000000    0.000000   -0.101622       -0.00 (A.U.)
         DX          DY          DZ         /D/  (DEBYE)
     0.000000   -0.000000    1.414184    1.414184
 ...... END OF PROPERTY EVALUATION ......
 STEP CPU TIME =     0.00 TOTAL CPU TIME =        0.1 (    0.0 MIN)
 TOTAL WALL CLOCK TIME=        0.2 SECONDS, CPU UTILIZATION IS  35.29%

 BEGINNING ONE ELECTRON GRADIENT...
 ..... END OF 1-ELECTRON GRADIENT ......
 STEP CPU TIME =     0.00 TOTAL CPU TIME =        0.1 (    0.0 MIN)
 TOTAL WALL CLOCK TIME=        0.2 SECONDS, CPU UTILIZATION IS  35.29%

          ----------------------
          GRADIENT OF THE ENERGY
          ----------------------
 THE COARSE/FINE SCHWARZ SCREENINGS SKIPPED            0/           0 BLOCKS.
 THE NUMBER OF GRADIENT INTEGRAL BLOCKS COMPUTED WAS        27
 ...... END OF 2-ELECTRON GRADIENT ......
 STEP CPU TIME =     0.00 TOTAL CPU TIME =        0.1 (    0.0 MIN)
 TOTAL WALL CLOCK TIME=        0.2 SECONDS, CPU UTILIZATION IS  35.29%

          NSERCH=  6     ENERGY=     -37.2380398

                                 -----------------------
                                 GRADIENT (HARTREE/BOHR)
                                 -----------------------
        ATOM     ZNUC       DE/DX         DE/DY         DE/DZ
 --------------------------------------------------------------
    1  C            6.0     0.0000000     0.0000000    -0.0000007
    2  H            1.0     0.0000005     0.0000000     0.0000003
    3  H            1.0    -0.0000005     0.0000000     0.0000003

          MAXIMUM GRADIENT = 0.0000007    RMS GRADIENT = 0.0000004

 NSERCH:   6  E=      -37.2380397698  GRAD. MAX=  0.0000007  R.M.S.=  0.0000004


      ***** EQUILIBRIUM GEOMETRY LOCATED *****
 COORDINATES OF SYMMETRY UNIQUE ATOMS (ANGS)
   ATOM   CHARGE       X              Y              Z
 ------------------------------------------------------------
 C           6.0   0.0000000000   0.0000000000  -0.1584796219
 H           1.0   0.8569426061   0.0000000000   0.5695694992
 COORDINATES OF ALL ATOMS ARE (ANGS)
   ATOM   CHARGE       X              Y              Z
 ------------------------------------------------------------
 C           6.0   0.0000000000   0.0000000000  -0.1584796219
 H           1.0  -0.8569426061   0.0000000000   0.5695694992
 H           1.0   0.8569426061   0.0000000000   0.5695694992

 THE CURRENT FULLY SUBSTITUTED Z-MATRIX IS
 C   
 H      1   1.1244582
 H      1   1.1244582  2    99.2982662

          INTERNUCLEAR DISTANCES (ANGS.)
          ------------------------------

                1 C          2 H          3 H     

   1 C       0.0000000    1.1244582 *  1.1244582 *
   2 H       1.1244582 *  0.0000000    1.7138852 *
   3 H       1.1244582 *  1.7138852 *  0.0000000  

  * ... LESS THAN  3.000


          NUCLEAR ENERGY    =        5.9560361192
          ELECTRONIC ENERGY =      -43.1940758889
          TOTAL ENERGY      =      -37.2380397698

          ------------------
          MOLECULAR ORBITALS
          ------------------

                      1          2          3          4          5
                  -10.6276    -0.8173    -0.4847    -0.2978     0.2421
                     A1         A1         B1         A1         B2  
    1  C  1  S    0.983982  -0.242705   0.000000  -0.175974   0.000000
    2  C  1  S    0.061549   0.650085   0.000000   0.676409   0.000000
    3  C  1  X    0.000000   0.000000   0.532906   0.000000   0.000000
    4  C  1  Y    0.000000   0.000000   0.000000   0.000000   1.000000
    5  C  1  Z    0.011696   0.175598   0.000000  -0.724377   0.000000
    6  H  2  S   -0.015561   0.281181  -0.472331  -0.246246   0.000000
    7  H  3  S   -0.015561   0.281181   0.472331  -0.246246   0.000000

                      6          7
                    0.6935     0.7166
                     B1         A1  
    1  C  1  S    0.000000  -0.204194
    2  C  1  S    0.000000   1.029830
    3  C  1  X    1.065393   0.000000
    4  C  1  Y    0.000000   0.000000
    5  C  1  Z    0.000000   0.871473
    6  H  2  S    0.801563  -0.872905
    7  H  3  S   -0.801563  -0.872905

     ----------------------------------------------------------------
     PROPERTY VALUES FOR THE RHF   SELF-CONSISTENT FIELD WAVEFUNCTION
     ----------------------------------------------------------------

          -----------------
          ENERGY COMPONENTS
          -----------------

         WAVEFUNCTION NORMALIZATION =       1.0000000000

                ONE ELECTRON ENERGY =     -61.9332705667
                TWO ELECTRON ENERGY =      18.7391946778
           NUCLEAR REPULSION ENERGY =       5.9560361192
                                      ------------------
                       TOTAL ENERGY =     -37.2380397698

 ELECTRON-ELECTRON POTENTIAL ENERGY =      18.7391946778
  NUCLEUS-ELECTRON POTENTIAL ENERGY =     -99.1163682737
   NUCLEUS-NUCLEUS POTENTIAL ENERGY =       5.9560361192
                                      ------------------
             TOTAL POTENTIAL ENERGY =     -74.4211374768
               TOTAL KINETIC ENERGY =      37.1830977070
                 VIRIAL RATIO (V/T) =       2.0014776085

  ...... PI ENERGY ANALYSIS ......

 ENERGY ANALYSIS:
            FOCK ENERGY=    -24.4548812053
          BARE H ENERGY=    -61.9332705667
     ELECTRONIC ENERGY =    -43.1940758860
         KINETIC ENERGY=     37.1830977070
          N-N REPULSION=      5.9560361192
           TOTAL ENERGY=    -37.2380397668
        SIGMA PART(1+2)=    -43.1940758860
               (K,V1,2)=     37.1830977070    -99.1163682737     18.7391946807
           PI PART(1+2)=      0.0000000000
               (K,V1,2)=      0.0000000000      0.0000000000      0.0000000000
  SIGMA SKELETON, ERROR=    -37.2380397668     -0.0000000000
             MIXED PART= 0.00000E+00 0.00000E+00 0.00000E+00 0.00000E+00
 ...... END OF PI ENERGY ANALYSIS ......

          -----------------------------------------
          LOWDIN ORBITAL (VO(I,J)**2)*SIGN(VO(I,J))
          -----------------------------------------

                      1          2          3          4          5

                  -10.6276    -0.8173    -0.4847    -0.2978     0.2421

    1  C  1  S    0.965521  -0.020810  -0.000000  -0.007572   0.000000
    2  C  1  S    0.034165   0.489887   0.000000   0.260893  -0.000000
    3  C  1  X   -0.000000   0.000000   0.480336   0.000000   0.000000
    4  C  1  Y    0.000000  -0.000000   0.000000  -0.000000   1.000000
    5  C  1  Z    0.000027   0.053711  -0.000000  -0.655094   0.000000
    6  H  2  S    0.000143   0.217796  -0.259832  -0.038221  -0.000000
    7  H  3  S    0.000143   0.217796   0.259832  -0.038221  -0.000000

                      6          7

                    0.6935     0.7166

    1  C  1  S   -0.000000  -0.006097
    2  C  1  S    0.000000   0.215055
    3  C  1  X    0.519664   0.000000
    4  C  1  Y    0.000000  -0.000000
    5  C  1  Z    0.000000   0.291168
    6  H  2  S    0.240168  -0.243840
    7  H  3  S   -0.240168  -0.243840

          ------------------------
          LOWDIN BOND ORDER MATRIX
          ------------------------

                      1          2          3          4          5

    1  C  1  S    1.987805
    2  C  1  S    0.000000   1.569891
    3  C  1  X    0.000000   0.000000   0.960671
    4  C  1  Y    0.000000   0.000000   0.000000   0.000000
    5  C  1  Z    0.000000   0.000000   0.000000   0.000000   1.417664
    6  H  2  S    0.000000   0.000000   0.000000   0.000000   0.000000
    7  H  3  S    0.000000   0.000000   0.000000   0.000000   0.000000

                      6          7

    6  H  2  S    1.031984
    7  H  3  S    0.000000   1.031984

          ---------------------------------------
          MULLIKEN AND LOWDIN POPULATION ANALYSES
          ---------------------------------------

     AO MULLIKEN POPULATIONS IN EACH MOLECULAR ORBITAL

                      1          2          3          4

                  2.000000   2.000000   2.000000   2.000000

    1             1.965738   0.017365   0.000000   0.007313
    2             0.038490   1.103086   0.000000   0.538143
    3             0.000000   0.000000   0.918248   0.000000
    4             0.000000   0.000000   0.000000   0.000000
    5             0.000058   0.120044   0.000000   1.260331
    6            -0.002143   0.379752   0.540876   0.097106
    7            -0.002143   0.379752   0.540876   0.097106

     ATOMIC MULLIKEN POPULATION IN EACH MOLECULAR ORBITAL

                      1          2          3          4

                  2.000000   2.000000   2.000000   2.000000

    1             2.004286   1.240495   0.918248   1.805787
    2            -0.002143   0.379752   0.540876   0.097106
    3            -0.002143   0.379752   0.540876   0.097106

               ----- POPULATIONS IN EACH AO -----
                             MULLIKEN      LOWDIN
              1  C  1  S      1.99042     1.98781
              2  C  1  S      1.67972     1.56989
              3  C  1  X      0.91825     0.96067
              4  C  1  Y      0.00000     0.00000
              5  C  1  Z      1.38043     1.41766
              6  H  2  S      1.01559     1.03198
              7  H  3  S      1.01559     1.03198

          ----- MULLIKEN ATOMIC OVERLAP POPULATIONS -----
          (OFF-DIAGONAL ELEMENTS NEED TO BE MULTIPLIED BY 2)

             1           2           3

    1    5.3298147
    2    0.3195010   0.7260772
    3    0.3195010  -0.0299866   0.7260772

          TOTAL MULLIKEN AND LOWDIN ATOMIC POPULATIONS
       ATOM         MULL.POP.    CHARGE          LOW.POP.     CHARGE
    1 C             5.968817    0.031183         5.936032    0.063968
    2 H             1.015592   -0.015592         1.031984   -0.031984
    3 H             1.015592   -0.015592         1.031984   -0.031984

          -------------------------------
          BOND ORDER AND VALENCE ANALYSIS     BOND ORDER THRESHOLD=0.050
          -------------------------------

                   BOND                       BOND                       BOND
  ATOM PAIR DIST  ORDER      ATOM PAIR DIST  ORDER      ATOM PAIR DIST  ORDER
    1   2  1.124  0.995        1   3  1.124  0.995

                       TOTAL       BONDED        FREE
      ATOM            VALENCE     VALENCE     VALENCE
    1 C                 1.991       1.991      -0.000
    2 H                 1.000       1.000      -0.000
    3 H                 1.000       1.000      -0.000

          ---------------------
          ELECTROSTATIC MOMENTS
          ---------------------

 POINT   1           X           Y           Z (BOHR)    CHARGE
                 0.000000    0.000000   -0.101622        0.00 (A.U.)
         DX          DY          DZ         /D/  (DEBYE)
     0.000000   -0.000000    1.414184    1.414184
 ...... END OF PROPERTY EVALUATION ......
 STEP CPU TIME =     0.00 TOTAL CPU TIME =        0.1 (    0.0 MIN)
 TOTAL WALL CLOCK TIME=        0.2 SECONDS, CPU UTILIZATION IS  35.29%
  $VIB   
          IVIB=   0 IATOM=   0 ICOORD=   0 E=      -37.2380397698
  0.000000000E+00 0.000000000E+00-6.599372802E-07 4.995186460E-07 0.000000000E+00
  3.299685696E-07-4.995186460E-07 0.000000000E+00 3.299685696E-07
  0.000000000E+00-1.106145535E-17 1.414184492E+00
 ......END OF GEOMETRY SEARCH......
 STEP CPU TIME =     0.00 TOTAL CPU TIME =        0.1 (    0.0 MIN)
 TOTAL WALL CLOCK TIME=        0.2 SECONDS, CPU UTILIZATION IS  35.29%
                580000  WORDS OF DYNAMIC MEMORY USED
 EXECUTION OF GAMESS TERMINATED NORMALLY Wed Dec 23 16:23:12 2015
 DDI: 263624 bytes (0.3 MB / 0 MWords) used by master data server.

 ----------------------------------------
 CPU timing information for all processes
 ========================================
 0: 0.34 + 0.42 = 0.77
 1: 0.12 + 0.07 = 0.19
 ----------------------------------------
