----- GAMESS execution script 'rungms' -----
This job is running on host cpn-p27-15.cbls.ccr.buffalo.edu
under operating system Linux at Thu Feb 4 08:54:37 EST 2016
Available scratch disk space (Kbyte units) at beginning of the job is
Filesystem     1K-blocks  Used Available Use% Mounted on
/dev/sda6      293532636 32928 293499708   1% /scratch
GAMESS temporary binary files will be written to /scratch/288659
GAMESS supplementary output files will be written to /projects/academic/alexeyak/kosukesa/test_cal/gamess/work
Copying input file exam03_1.inp to your run's scratch directory...
MPI kickoff will run GAMESS on 1 cores in 1 nodes.
The nodes are cpn-p27-15.
The binary to be executed is /util/academic/gamess/v20130501r1/impi/gamess/gamess.01.x
MPI will run 1 compute processes and 1 data servers,
    placing 2 of each process type onto each node.
The scratch disk space on each node is /scratch/288659, with free space
Filesystem     1K-blocks  Used Available Use% Mounted on
/dev/sda6      293532636 32952 293499684   1% /scratch
[-1] MPI startup(): Imported environment partly inaccesible. Map=0 Info=c3537f0
[-1] MPI startup(): Imported environment partly inaccesible. Map=0 Info=b6257f0
[0] MPI startup(): shm data transfer mode
[1] MPI startup(): shm data transfer mode
[0] MPI startup(): Rank    Pid      Node name                        Pin cpu
[0] MPI startup(): 0       76035    cpn-p27-15.cbls.ccr.buffalo.edu  +1
[0] MPI startup(): 1       76036    cpn-p27-15.cbls.ccr.buffalo.edu  +1
          ******************************************************
          *         GAMESS VERSION =  1 MAY 2013 (R1)          *
          *             FROM IOWA STATE UNIVERSITY             *
          * M.W.SCHMIDT, K.K.BALDRIDGE, J.A.BOATZ, S.T.ELBERT, *
          *   M.S.GORDON, J.H.JENSEN, S.KOSEKI, N.MATSUNAGA,   *
          *          K.A.NGUYEN, S.J.SU, T.L.WINDUS,           *
          *       TOGETHER WITH M.DUPUIS, J.A.MONTGOMERY       *
          *         J.COMPUT.CHEM.  14, 1347-1363(1993)        *
          **************** 64 BIT INTEL VERSION ****************

  SINCE 1993, STUDENTS AND POSTDOCS WORKING AT IOWA STATE UNIVERSITY
  AND ALSO IN THEIR VARIOUS JOBS AFTER LEAVING ISU HAVE MADE IMPORTANT
  CONTRIBUTIONS TO THE CODE:
     IVANA ADAMOVIC, CHRISTINE AIKENS, YURI ALEXEEV, POOJA ARORA,
     ANDREY ASADCHEV, ROB BELL, PRADIPTA BANDYOPADHYAY, JONATHAN BENTZ,
     BRETT BODE, GALINA CHABAN, WEI CHEN, CHEOL HO CHOI, PAUL DAY,
     ALBERT DEFUSCO, TIM DUDLEY, DMITRI FEDOROV, GRAHAM FLETCHER,
     MARK FREITAG, KURT GLAESEMANN, DAN KEMP, GRANT MERRILL,
     NORIYUKI MINEZAWA, JONATHAN MULLIN, TAKESHI NAGATA,
     SEAN NEDD, HEATHER NETZLOFF, BOSILJKA NJEGIC, RYAN OLSON, MIKE PAK,
     JIM SHOEMAKER, LYUDMILA SLIPCHENKO, SAROM SOK, JIE SONG,
     TETSUYA TAKETSUGU, SIMON WEBB, SOOHAENG YOO, FEDERICO ZAHARIEV

  ADDITIONAL CODE HAS BEEN PROVIDED BY COLLABORATORS IN OTHER GROUPS:
     IOWA STATE UNIVERSITY:
          JOE IVANIC, LAIMUTIS BYTAUTAS, KLAUS RUEDENBERG
     UNIVERSITY OF TOKYO: KIMIHIKO HIRAO, TAKAHITO NAKAJIMA,
          TAKAO TSUNEDA, MUNEAKI KAMIYA, SUSUMU YANAGISAWA,
          KIYOSHI YAGI, MAHITO CHIBA, SEIKEN TOKURA, NAOAKI KAWAKAMI
     UNIVERSITY OF AARHUS: FRANK JENSEN
     UNIVERSITY OF IOWA: VISVALDAS KAIRYS, HUI LI
     NATIONAL INST. OF STANDARDS AND TECHNOLOGY: WALT STEVENS, DAVID GARMER
     UNIVERSITY OF PISA: BENEDETTA MENNUCCI, JACOPO TOMASI
     UNIVERSITY OF MEMPHIS: HENRY KURTZ, PRAKASHAN KORAMBATH
     UNIVERSITY OF ALBERTA: TOBY ZENG, MARIUSZ KLOBUKOWSKI
     UNIVERSITY OF NEW ENGLAND: MARK SPACKMAN
     MIE UNIVERSITY: HIROAKI UMEDA
     MICHIGAN STATE UNIVERSITY:
          KAROL KOWALSKI, MARTA WLOCH, JEFFREY GOUR, JESSE LUTZ,
          WEI LI, PIOTR PIECUCH
     UNIVERSITY OF SILESIA: MONIKA MUSIAL, STANISLAW KUCHARSKI
     FACULTES UNIVERSITAIRES NOTRE-DAME DE LA PAIX:
          OLIVIER QUINET, BENOIT CHAMPAGNE
     UNIVERSITY OF CALIFORNIA - SANTA BARBARA: BERNARD KIRTMAN
     INSTITUTE FOR MOLECULAR SCIENCE:
          KAZUYA ISHIMURA, MICHIO KATOUDA, AND SHIGERU NAGASE
     UNIVERSITY OF NOTRE DAME: DAN CHIPMAN
     KYUSHU UNIVERSITY:
          HARUYUKI NAKANO,
          FENG LONG GU, JACEK KORCHOWIEC, MARCIN MAKOWSKI, AND YURIKO AOKI,
          HIROTOSHI MORI AND EISAKU MIYOSHI
     PENNSYLVANIA STATE UNIVERSITY:
          TZVETELIN IORDANOV, CHET SWALINA, JONATHAN SKONE,
          SHARON HAMMES-SCHIFFER
     WASEDA UNIVERSITY:
          MASATO KOBAYASHI, TOMOKO AKAMA, TSUGUKI TOUMA,
          TAKESHI YOSHIKAWA, YASUHIRO IKABATA, HIROMI NAKAI
     NANJING UNIVERSITY: SHUHUA LI
     UNIVERSITY OF NEBRASKA:
          PEIFENG SU, DEJUN SI, NANDUN THELLAMUREGE, YALI WANG, HUI LI
     UNIVERSITY OF ZURICH:
          ROBERTO PEVERATI, KIM BALDRIDGE
     N. COPERNICUS UNIVERSITY AND JACKSON STATE UNIVERSITY:
          MARIA BARYSZ

 EXECUTION OF GAMESS BEGUN Thu Feb  4 08:54:38 2016

            ECHO OF THE FIRST FEW INPUT CARDS -
 INPUT CARD>! EXAM03.                                                                       
 INPUT CARD>!    3-B-1 CH2  ROHF calculation on methylene ground state.                     
 INPUT CARD>!    The wavefunction is a pure triplet state (<S**2> = 2),                     
 INPUT CARD>!    and so has a higher energy than the second example.                        
 INPUT CARD>!                                                                               
 INPUT CARD>!    For COORD=CART, all atoms must be given, and as in the                     
 INPUT CARD>!    present case, these may be in an unoriented geometry.                      
 INPUT CARD>!    GAMESS deduces which atoms are unique, and orients                         
 INPUT CARD>!    the molecule appropriately.  The geometry here is thus                     
 INPUT CARD>!    identical to the second example.                                           
 INPUT CARD>!                                                                               
 INPUT CARD>!    This job tests the ROHF wavefunction and gradient code.                    
 INPUT CARD>!    It also tests the direct SCF procedure.                                    
 INPUT CARD>!                                                                               
 INPUT CARD>!    The initial energy is -37.228465066.                                       
 INPUT CARD>!    The FINAL energy is -37.2778767090 after 7 iterations.                     
 INPUT CARD>!    Mulliken, Lowdin charges on C are -0.020346, 0.019470.                     
 INPUT CARD>!    The Hydrogen atom spin density is 0.0129735.                               
 INPUT CARD>!    The dipole moment is 0.025099 Debye.                                       
 INPUT CARD>!    The RMS gradient is 0.027505548                                            
 INPUT CARD>!***********************************************                                
 INPUT CARD>!     Modified from STO to AM1 @ $BASIS                                         
 INPUT CARD>!***********************************************                                
 INPUT CARD>!                                                                               
 INPUT CARD> $CONTRL SCFTYP=ROHF MULT=3 RUNTYP=GRADIENT COORD=CART $END                     
 INPUT CARD> $SYSTEM TIMLIM=1 $END                                                          
 INPUT CARD> $SCF    DIRSCF=.TRUE. $END                                                     
 INPUT CARD> $BASIS  GBASIS=AM1 NGAUSS=2 $END                                               
 INPUT CARD> $GUESS  GUESS=HUCKEL $END                                                      
 INPUT CARD> $DATA                                                                          
 INPUT CARD>Methylene...3-B-1 state...ROHF/STO-2G                                           
 INPUT CARD>Cnv  2                                                                          
 INPUT CARD>                                                                                
 INPUT CARD>Hydrogen   1.0    0.82884     0.7079   0.0                                      
 INPUT CARD>Carbon     6.0                                                                  
 INPUT CARD>Hydrogen   1.0   -0.82884     0.7079   0.0                                      
 INPUT CARD> $END                                                                           
    1000000 WORDS OF MEMORY AVAILABLE


                    * * * WARNING * * *
 OLD KEYWORD COORD=CART SELECTED, AUTOMATICALLY CHANGED TO COORD=PRINAXIS.
 YOUR MOLECULE'S COORDINATES WILL BE CHANGED TO PRINCIPAL AXES BY
   A) TRANSLATION TO THE CENTER OF MASS, THEN
   B) ROTATION TO HAVE A DIAGONAL MOMENT OF INERTIA TENSOR.

 HOWEVER, NOTHING ELSE IN YOUR INPUT WILL BE ROTATED IN THE SAME WAY,
 SO IF YOU HAVE A $VEC, $VIB, $GRAD, $HESS, EFP PARTICLE COORDINATES,
 OR ANYTHING ELSE THAT DEPENDS ON THE INITIAL ORIENTATION, THAT DATA
 WILL NOT BE USED CORRECTLY IN THIS RUN.

 THE PURPOSE OF COORD=PRINAXIS IS TO BE USED ONCE, ONLY AT THE VERY
 BEGINNING OF A SERIES OF COMPUTATIONS, PERHAPS TO FIND THE SYMMETRY
 UNIQUE ATOMS FROM AN ARBITRARY INITIAL ORIENTATION.

 AFTER THE FIRST RUN, YOU SHOULD USE ONLY COORD=UNIQUE, TO ENSURE THAT
 THE COORDINATES WHICH YOU READ IN ARE THE COORDINATES THAT ARE USED.


     BASIS OPTIONS
     -------------
     GBASIS=AM1          IGAUSS=       0      POLAR=NONE    
     NDFUNC=       0     NFFUNC=       0     DIFFSP=       F
     NPFUNC=       0      DIFFS=       F     BASNAM=        


     RUN TITLE
     ---------
 Methylene...3-B-1 state...ROHF/STO-2G                                           

 THE POINT GROUP OF THE MOLECULE IS CNV     
 THE ORDER OF THE PRINCIPAL AXIS IS     2

 THE MOMENTS OF INERTIA ARE (AMU-ANGSTROM**2)
 IXX=     0.865   IYY=     1.385   IZZ=     2.250

 ATOM      ATOMIC                      COORDINATES (BOHR)
           CHARGE         X                   Y                   Z
 HYDROGEN    1.0    -1.5662804877        0.0000000000        1.1453513979
 HYDROGEN    1.0     1.5662804877        0.0000000000        1.1453513979
 CARBON      6.0     0.0000000000        0.0000000000       -0.1923856288

          INTERNUCLEAR DISTANCES (ANGS.)
          ------------------------------

                1 HYDR       2 HYDR       3 CARB  

   1 HYDR    0.0000000    1.6576800 *  1.0899992 *
   2 HYDR    1.6576800 *  0.0000000    1.0899992 *
   3 CARB    1.0899992 *  1.0899992 *  0.0000000  

  * ... LESS THAN  3.000




 PLEASE NOTE:
 SEMI-EMPIRICAL CALCULATIONS ACTUALLY USE VALENCE-ONLY SLATER TYPE ORBITALS.
 FOR PLOTTING PURPOSES, STO-NG EXPANSIONS CAN APPROXIMATE THE STO FUNCTIONS.
 THE GTO BASIS LISTED BELOW USES N=  2 EXPANSIONS OF THE VALENCE STO BASIS.



     ATOMIC BASIS SET
     ----------------
 THE CONTRACTED PRIMITIVE FUNCTIONS HAVE BEEN UNNORMALIZED
 THE CONTRACTED BASIS FUNCTIONS ARE NOW NORMALIZED TO UNITY

  SHELL TYPE  PRIMITIVE        EXPONENT          CONTRACTION COEFFICIENT(S)

 HYDROGEN  
 
      2   S       1             1.2023670    0.430128498300
      2   S       2             0.2140207    0.678913530500

 CARBON    
 
      3   S       3             0.4227391    0.747086712400
      3   S       4             0.1605730    0.285598055600
 
      4   P       5             1.2278239    0.452262751300
      4   P       6             0.3036796    0.671312264200

 TOTAL NUMBER OF BASIS SET SHELLS             =    4
 NUMBER OF CARTESIAN GAUSSIAN BASIS FUNCTIONS =    6
 NUMBER OF ELECTRONS                          =    6
 CHARGE OF MOLECULE                           =    0
 SPIN MULTIPLICITY                            =    3
 NUMBER OF OCCUPIED ORBITALS (ALPHA)          =    4
 NUMBER OF OCCUPIED ORBITALS (BETA )          =    2
 TOTAL NUMBER OF ATOMS                        =    3
 THE NUCLEAR REPULSION ENERGY IS        6.1450367257

 THE PARAMETERS USED IN THIS CALCULATION ARE DESCRIBED IN:

  H: (AM1): M.J.S. DEWAR ET AL, J. AM. CHEM. SOC. 107 3902-3909 (1985)          
  C: (AM1): M.J.S. DEWAR ET AL, J. AM. CHEM. SOC. 107 3902-3909 (1985)          

 THERE ARE    1 HEAVY AND    2 LIGHT ATOMS,
 YIELDING A TOTAL OF        21 MOPAC 2E- INTEGRALS.

     $CONTRL OPTIONS
     ---------------
 SCFTYP=ROHF         RUNTYP=GRADIENT     EXETYP=RUN     
 MPLEVL=       0     CITYP =NONE         CCTYP =NONE         VBTYP =NONE    
 DFTTYP=NONE         TDDFT =NONE    
 MULT  =       3     ICHARG=       0     NZVAR =       0     COORD =PRINAXIS
 PP    =NONE         RELWFN=NONE         LOCAL =NONE         NUMGRD=       F
 ISPHER=      -1     NOSYM =       0     MAXIT =      30     UNITS =ANGS    
 PLTORB=       F     MOLPLT=       F     AIMPAC=       F     FRIEND=        
 NPRINT=       7     IREST =       0     GEOM  =INPUT   
 NORMF =       0     NORMP =       0     ITOL  =      20     ICUT  =       9
 INTTYP=BEST         GRDTYP=BEST         QMTTOL= 1.0E-06

     $SYSTEM OPTIONS
     ---------------
  REPLICATED MEMORY=     1000000 WORDS (ON EVERY NODE).
 DISTRIBUTED MEMDDI=           0 MILLION WORDS IN AGGREGATE,
 MEMDDI DISTRIBUTED OVER   1 PROCESSORS IS           0 WORDS/PROCESSOR.
 TOTAL MEMORY REQUESTED ON EACH PROCESSOR=     1000000 WORDS.
 TIMLIM=           1.00 MINUTES, OR       0.0 DAYS.
 PARALL= F  BALTYP=  DLB     KDIAG=    0  COREFL= F
 MXSEQ2=     300 MXSEQ3=     150

          ----------------
          PROPERTIES INPUT
          ----------------

     MOMENTS            FIELD           POTENTIAL          DENSITY
 IEMOM =       1   IEFLD =       0   IEPOT =       0   IEDEN =       0
 WHERE =COMASS     WHERE =NUCLEI     WHERE =NUCLEI     WHERE =NUCLEI  
 OUTPUT=BOTH       OUTPUT=BOTH       OUTPUT=BOTH       OUTPUT=BOTH    
 IEMINT=       0   IEFINT=       0                     IEDINT=       0
                                                       MORB  =       0
          EXTRAPOLATION IN EFFECT
 ORBITAL PRINTING OPTION: NPREO=     1     6     2     1

     -------------------------------
     INTEGRAL TRANSFORMATION OPTIONS
     -------------------------------
     NWORD  =            0
     CUTOFF = 1.0E-09     MPTRAN =       0
     DIRTRF =       T     AOINTS =DUP     

          ----------------------
          INTEGRAL INPUT OPTIONS
          ----------------------
 NOPK  =       1 NORDER=       0 SCHWRZ=       T

     ------------------------------------------
     THE POINT GROUP IS CNV, NAXIS= 2, ORDER= 4
     ------------------------------------------

     DIMENSIONS OF THE SYMMETRY SUBSPACES ARE
 A1  =    3     A2  =    0     B1  =    2     B2  =    1

 ..... DONE SETTING UP THE RUN .....
 STEP CPU TIME =     0.01 TOTAL CPU TIME =        0.0 (    0.0 MIN)
 TOTAL WALL CLOCK TIME=        0.0 SECONDS, CPU UTILIZATION IS  50.00%

                    --------------------------------
                    SINGLE POINT ENERGY AND GRADIENT
                    --------------------------------

          ********************
          1 ELECTRON INTEGRALS
          ********************

          **************************
          1 AND 2 ELECTRON INTEGRALS
          **************************

 MOPAC ONE- AND TWO-ELECTRON INTEGRALS REQUIRE        63 WORDS.
 ...... END OF ONE- AND TWO-ELECTRON INTEGRALS......
 STEP CPU TIME =     0.00 TOTAL CPU TIME =        0.0 (    0.0 MIN)
 TOTAL WALL CLOCK TIME=        0.0 SECONDS, CPU UTILIZATION IS  50.00%
 ...... END OF ONE-ELECTRON INTEGRALS ......
 STEP CPU TIME =     0.00 TOTAL CPU TIME =        0.0 (    0.0 MIN)
 TOTAL WALL CLOCK TIME=        0.0 SECONDS, CPU UTILIZATION IS  50.00%

          -------------
          GUESS OPTIONS
          -------------
          GUESS =HUCKEL            NORB  =       0          NORDER=       0
          MIX   =       F          PRTMO =       F          PUNMO =       F
          TOLZ  = 1.0E-08          TOLE  = 1.0E-05
          SYMDEN=       F          PURIFY=       F

 INITIAL GUESS ORBITALS GENERATED BY HUCKEL   ROUTINE.

 SYMMETRIES FOR INITIAL GUESS ORBITALS FOLLOW.  ALPHA SET(S).
     4 ORBITALS ARE OCCUPIED (    0 CORE ORBITALS).
     1=A1       2=B1       3=A1       4=B2       5=B1       6=A1  

 SYMMETRIES FOR INITIAL GUESS ORBITALS FOLLOW.   BETA SET(S).
     2 ORBITALS ARE OCCUPIED (    0 CORE ORBITALS).
     1=A1       2=B1       3=A1       4=B2       5=B1       6=A1  
 ...... END OF INITIAL ORBITAL SELECTION ......
 STEP CPU TIME =     0.00 TOTAL CPU TIME =        0.0 (    0.0 MIN)
 TOTAL WALL CLOCK TIME=        0.0 SECONDS, CPU UTILIZATION IS  50.00%

          ---------------------------
               RO-AM1 SCF CALCULATION
          ---------------------------

     NUCLEAR ENERGY =         3.2398951107
     MAXIT = 30     NPUNCH=  2     MULT=  3
     EXTRAP=T  DAMP=F  SHIFT=F  RSTRCT=F  DIIS=F  SOSCF=F
     DENSITY MATRIX CONV=  2.00E-05
     ROHF CANONICALIZATION PARAMETERS
             C-C     O-O     V-V
     ALPHA -0.5000  0.5000  1.5000
     BETA   1.5000  0.5000 -0.5000
     MEMORY REQUIRED FOR UHF/ROHF ITERS=       483 WORDS.

                                                                                NONZERO     BLOCKS
 ITER EX      TOTAL ENERGY        E CHANGE  DENSITY CHANGE    DIIS ERROR      INTEGRALS    SKIPPED
   1  0       -5.5073095468    -5.5073095468   0.321012034   0.000000000              0          0
   2  1       -5.5571438105    -0.0498342637   0.044874574   0.000000000              0          0
   3  2       -5.5583864289    -0.0012426183   0.014200831   0.000000000              0          0
   4  3       -5.5584943916    -0.0001079627   0.005075248   0.000000000              0          0
   5  0       -5.5585064052    -0.0000120136   0.003081701   0.000000000              0          0
   6  1       -5.5585081483    -0.0000017431   0.000058394   0.000000000              0          0
   7  2       -5.5585081513    -0.0000000030   0.000023136   0.000000000              0          0
   8  3       -5.5585081517    -0.0000000004   0.000009104   0.000000000              0          0
   9  4       -5.5585081518    -0.0000000001   0.000003754   0.000000000              0          0

          -----------------
          DENSITY CONVERGED
          -----------------
     TIME TO FORM FOCK OPERATORS=       0.0 SECONDS (       0.0 SEC/ITER)
     FOCK TIME ON FIRST ITERATION=       0.0, LAST ITERATION=       0.0
     TIME TO SOLVE SCF EQUATIONS=       0.0 SECONDS (       0.0 SEC/ITER)

 FINAL RO-AM1 ENERGY IS       -5.5585081518 AFTER   9 ITERATIONS

 HEAT OF FORMATION IS       98.73403 KCAL/MOL

          --------------------
          SPIN SZ   =    1.000
          S-SQUARED =    2.000
          --------------------

          ------------
          EIGENVECTORS
          ------------

                      1          2          3          4          5
                   -0.8324    -0.4541    -0.2232    -0.1566     0.1219
                     A1         B1         A1         B2         B1  
    1  H  1  S    0.419413  -0.501652   0.226426   0.000000   0.498343
    2  H  2  S    0.419413   0.501652   0.226426   0.000000  -0.498343
    3  C  3  S    0.775949   0.000000  -0.472025  -0.000000  -0.000000
    4  C  3  X    0.000000   0.704763  -0.000000  -0.000000   0.709443
    5  C  3  Y    0.000000   0.000000  -0.000000   1.000000   0.000000
    6  C  3  Z    0.214683   0.000000   0.821374   0.000000  -0.000000

                      6
                    0.1483
                     A1  
    1  H  1  S   -0.522326
    2  H  2  S   -0.522326
    3  C  3  S    0.418444
    4  C  3  X    0.000000
    5  C  3  Y   -0.000000
    6  C  3  Z    0.528447
 ...... END OF ROHF CALCULATION ......
 STEP CPU TIME =     0.01 TOTAL CPU TIME =        0.0 (    0.0 MIN)
 TOTAL WALL CLOCK TIME=        0.0 SECONDS, CPU UTILIZATION IS 100.00%

     ----------------------------------------------------------------
     PROPERTY VALUES FOR THE ROHF  SELF-CONSISTENT FIELD WAVEFUNCTION
     ----------------------------------------------------------------

                    -------------
                    MOPAC CHARGES
                    -------------
         ATOM NO.   TYPE          CHARGE        ATOM  ELECTRON DENSITY
           1         H              0.0936          0.9064
           2         H              0.0936          0.9064
           3         C             -0.1872          4.1872

          ---------------------
          ELECTROSTATIC MOMENTS
          ---------------------

 POINT   1           X           Y           Z (ANGS)      CHARGE
                 0.000000    0.000000    0.000000       -0.00 (A.U.)
         DX          DY          DZ         /D/  (DEBYE)
     0.000000   -0.000000    0.864904    0.864904
 ...... END OF PROPERTY EVALUATION ......
 STEP CPU TIME =     0.00 TOTAL CPU TIME =        0.0 (    0.0 MIN)
 TOTAL WALL CLOCK TIME=        0.0 SECONDS, CPU UTILIZATION IS 100.00%

                         ----------------------
                         GRADIENT OF THE ENERGY
                         ----------------------

 UNITS ARE HARTREE/BOHR    E'X               E'Y               E'Z 
    1 HYDROGEN         0.025628644       0.000000000       0.032880487
    2 HYDROGEN        -0.025628644       0.000000000       0.032880487
    3 CARBON           0.000000000       0.000000000      -0.065760974

                   MAXIMUM GRADIENT =    0.065760974
                       RMS GRADIENT =    0.029439983
  $VIB   
          IVIB=   0 IATOM=   0 ICOORD=   0 E=       -5.5585081518
  2.562864433E-02 0.000000000E+00 3.288048704E-02-2.562864433E-02 0.000000000E+00
  3.288048704E-02 0.000000000E+00 0.000000000E+00-6.576097407E-02
  7.320344140E-14-8.067033203E-16 8.649036656E-01

..... END OF SINGLE POINT GRADIENT .....
 STEP CPU TIME =     0.00 TOTAL CPU TIME =        0.0 (    0.0 MIN)
 TOTAL WALL CLOCK TIME=        0.0 SECONDS, CPU UTILIZATION IS 100.00%
                580000  WORDS OF DYNAMIC MEMORY USED
 EXECUTION OF GAMESS TERMINATED NORMALLY Thu Feb  4 08:54:38 2016
 DDI: 263624 bytes (0.3 MB / 0 MWords) used by master data server.

 ----------------------------------------
 CPU timing information for all processes
 ========================================
 0: 0.10 + 0.29 = 0.40
 1: 0.09 + 0.13 = 0.23
 ----------------------------------------
