----- GAMESS execution script 'rungms' -----
This job is running on host cpn-p27-15.cbls.ccr.buffalo.edu
under operating system Linux at Wed Feb 3 11:57:19 EST 2016
Available scratch disk space (Kbyte units) at beginning of the job is
Filesystem     1K-blocks  Used Available Use% Mounted on
/dev/sda6      293532636 32928 293499708   1% /scratch
GAMESS temporary binary files will be written to /scratch/288541
GAMESS supplementary output files will be written to /projects/academic/alexeyak/kosukesa/test_cal/gamess/work
Copying input file exam23_2.inp to your run's scratch directory...
MPI kickoff will run GAMESS on 1 cores in 1 nodes.
The nodes are cpn-p27-15.
The binary to be executed is /util/academic/gamess/v20130501r1/impi/gamess/gamess.01.x
MPI will run 1 compute processes and 1 data servers,
    placing 2 of each process type onto each node.
The scratch disk space on each node is /scratch/288541, with free space
Filesystem     1K-blocks  Used Available Use% Mounted on
/dev/sda6      293532636 32952 293499684   1% /scratch
[-1] MPI startup(): Imported environment partly inaccesible. Map=0 Info=b7227f0
[-1] MPI startup(): Imported environment partly inaccesible. Map=0 Info=d1867f0
[0] MPI startup(): shm data transfer mode
[1] MPI startup(): shm data transfer mode
[0] MPI startup(): Rank    Pid      Node name                        Pin cpu
[0] MPI startup(): 0       121383   cpn-p27-15.cbls.ccr.buffalo.edu  +1
[0] MPI startup(): 1       121384   cpn-p27-15.cbls.ccr.buffalo.edu  +1
          ******************************************************
          *         GAMESS VERSION =  1 MAY 2013 (R1)          *
          *             FROM IOWA STATE UNIVERSITY             *
          * M.W.SCHMIDT, K.K.BALDRIDGE, J.A.BOATZ, S.T.ELBERT, *
          *   M.S.GORDON, J.H.JENSEN, S.KOSEKI, N.MATSUNAGA,   *
          *          K.A.NGUYEN, S.J.SU, T.L.WINDUS,           *
          *       TOGETHER WITH M.DUPUIS, J.A.MONTGOMERY       *
          *         J.COMPUT.CHEM.  14, 1347-1363(1993)        *
          **************** 64 BIT INTEL VERSION ****************

  SINCE 1993, STUDENTS AND POSTDOCS WORKING AT IOWA STATE UNIVERSITY
  AND ALSO IN THEIR VARIOUS JOBS AFTER LEAVING ISU HAVE MADE IMPORTANT
  CONTRIBUTIONS TO THE CODE:
     IVANA ADAMOVIC, CHRISTINE AIKENS, YURI ALEXEEV, POOJA ARORA,
     ANDREY ASADCHEV, ROB BELL, PRADIPTA BANDYOPADHYAY, JONATHAN BENTZ,
     BRETT BODE, GALINA CHABAN, WEI CHEN, CHEOL HO CHOI, PAUL DAY,
     ALBERT DEFUSCO, TIM DUDLEY, DMITRI FEDOROV, GRAHAM FLETCHER,
     MARK FREITAG, KURT GLAESEMANN, DAN KEMP, GRANT MERRILL,
     NORIYUKI MINEZAWA, JONATHAN MULLIN, TAKESHI NAGATA,
     SEAN NEDD, HEATHER NETZLOFF, BOSILJKA NJEGIC, RYAN OLSON, MIKE PAK,
     JIM SHOEMAKER, LYUDMILA SLIPCHENKO, SAROM SOK, JIE SONG,
     TETSUYA TAKETSUGU, SIMON WEBB, SOOHAENG YOO, FEDERICO ZAHARIEV

  ADDITIONAL CODE HAS BEEN PROVIDED BY COLLABORATORS IN OTHER GROUPS:
     IOWA STATE UNIVERSITY:
          JOE IVANIC, LAIMUTIS BYTAUTAS, KLAUS RUEDENBERG
     UNIVERSITY OF TOKYO: KIMIHIKO HIRAO, TAKAHITO NAKAJIMA,
          TAKAO TSUNEDA, MUNEAKI KAMIYA, SUSUMU YANAGISAWA,
          KIYOSHI YAGI, MAHITO CHIBA, SEIKEN TOKURA, NAOAKI KAWAKAMI
     UNIVERSITY OF AARHUS: FRANK JENSEN
     UNIVERSITY OF IOWA: VISVALDAS KAIRYS, HUI LI
     NATIONAL INST. OF STANDARDS AND TECHNOLOGY: WALT STEVENS, DAVID GARMER
     UNIVERSITY OF PISA: BENEDETTA MENNUCCI, JACOPO TOMASI
     UNIVERSITY OF MEMPHIS: HENRY KURTZ, PRAKASHAN KORAMBATH
     UNIVERSITY OF ALBERTA: TOBY ZENG, MARIUSZ KLOBUKOWSKI
     UNIVERSITY OF NEW ENGLAND: MARK SPACKMAN
     MIE UNIVERSITY: HIROAKI UMEDA
     MICHIGAN STATE UNIVERSITY:
          KAROL KOWALSKI, MARTA WLOCH, JEFFREY GOUR, JESSE LUTZ,
          WEI LI, PIOTR PIECUCH
     UNIVERSITY OF SILESIA: MONIKA MUSIAL, STANISLAW KUCHARSKI
     FACULTES UNIVERSITAIRES NOTRE-DAME DE LA PAIX:
          OLIVIER QUINET, BENOIT CHAMPAGNE
     UNIVERSITY OF CALIFORNIA - SANTA BARBARA: BERNARD KIRTMAN
     INSTITUTE FOR MOLECULAR SCIENCE:
          KAZUYA ISHIMURA, MICHIO KATOUDA, AND SHIGERU NAGASE
     UNIVERSITY OF NOTRE DAME: DAN CHIPMAN
     KYUSHU UNIVERSITY:
          HARUYUKI NAKANO,
          FENG LONG GU, JACEK KORCHOWIEC, MARCIN MAKOWSKI, AND YURIKO AOKI,
          HIROTOSHI MORI AND EISAKU MIYOSHI
     PENNSYLVANIA STATE UNIVERSITY:
          TZVETELIN IORDANOV, CHET SWALINA, JONATHAN SKONE,
          SHARON HAMMES-SCHIFFER
     WASEDA UNIVERSITY:
          MASATO KOBAYASHI, TOMOKO AKAMA, TSUGUKI TOUMA,
          TAKESHI YOSHIKAWA, YASUHIRO IKABATA, HIROMI NAKAI
     NANJING UNIVERSITY: SHUHUA LI
     UNIVERSITY OF NEBRASKA:
          PEIFENG SU, DEJUN SI, NANDUN THELLAMUREGE, YALI WANG, HUI LI
     UNIVERSITY OF ZURICH:
          ROBERTO PEVERATI, KIM BALDRIDGE
     N. COPERNICUS UNIVERSITY AND JACKSON STATE UNIVERSITY:
          MARIA BARYSZ

 EXECUTION OF GAMESS BEGUN Wed Feb  3 11:57:19 2016

            ECHO OF THE FIRST FEW INPUT CARDS -
 INPUT CARD>! EXAM23.                                                                       
 INPUT CARD>!   semiempirical calculation, using the MOPAC/GAMESS combo                     
 INPUT CARD>!   AM1 gets the geometry disasterously wrong!                                  
 INPUT CARD>!                                                                               
 INPUT CARD>!   initial geometry,            MNDO       AM1         PM3                     
 INPUT CARD>!   HEAT OF FORMATION         105.14088   93.45997   46.89387                   
 INPUT CARD>!   RMS gradient              0.0818157  0.1008587  0.0366232                   
 INPUT CARD>!   optimized geometry (# steps),   8         10         7                      
 INPUT CARD>!   HEAT OF FORMATION          46.45648   -1.81730   -2.79646                   
 INPUT CARD>!   RMS gradient              0.0000063  0.0000062  0.0000187                   
 INPUT CARD>!   r(SiH)                      1.42108    1.45806    1.52101                   
 INPUT CARD>!   a(HSiH)                     101.956    120.000     96.298                   
 INPUT CARD>!                                                                               
 INPUT CARD>!   At the optimized PM3 geometry, the charge on Si= -.4681,                    
 INPUT CARD>!   and the dipole moment is 2.346 Debye.                                       
 INPUT CARD>!                                                                               
 INPUT CARD> $CONTRL SCFTYP=RHF RUNTYP=GRADIENT COORD=ZMT ICHARG=-1 $END                    
 INPUT CARD> $SYSTEM TIMLIM=1 $END                                                          
 INPUT CARD> $BASIS  GBASIS=MNDO NGAUSS=3 $END                                              
 INPUT CARD> $DATA                                                                          
 INPUT CARD>Silyl anion...comparison of semiempirical models                                
 INPUT CARD>Cnv 3                                                                           
 INPUT CARD>                                                                                
 INPUT CARD>Si                                                                              
 INPUT CARD>H  1  rSiH                                                                      
 INPUT CARD>H  1  rSiH  2 aHSiH                                                             
 INPUT CARD>H  1  rSiH  2 aHSiH  3   aHSiH  -1                                              
 INPUT CARD>                                                                                
 INPUT CARD>rSiH=1.15                                                                       
 INPUT CARD>aHSiH=110.0                                                                     
 INPUT CARD> $END                                                                           
    1000000 WORDS OF MEMORY AVAILABLE

     BASIS OPTIONS
     -------------
     GBASIS=MNDO         IGAUSS=       0      POLAR=NONE    
     NDFUNC=       0     NFFUNC=       0     DIFFSP=       F
     NPFUNC=       0      DIFFS=       F     BASNAM=        


     RUN TITLE
     ---------
 Silyl anion...comparison of semiempirical models                                

 THE POINT GROUP OF THE MOLECULE IS CNV     
 THE ORDER OF THE PRINCIPAL AXIS IS     3

 YOUR FULLY SUBSTITUTED Z-MATRIX IS
 SI  
 H      1   1.1500000
 H      1   1.1500000  2  110.0000
 H      1   1.1500000  2  110.0000  3  110.0000 -1

 THE MOMENTS OF INERTIA ARE (AMU-ANGSTROM**2)
 IXX=     2.169   IYY=     2.169   IZZ=     3.577

 ATOM      ATOMIC                      COORDINATES (BOHR)
           CHARGE         X                   Y                   Z
 SI         14.0     0.0000000000        0.0000000000       -0.0687845529
 H           1.0     1.0277809601       -1.7801688419        0.6364797527
 H           1.0     1.0277809601        1.7801688419        0.6364797527
 H           1.0    -2.0555619201        0.0000000000        0.6364797527

          INTERNUCLEAR DISTANCES (ANGS.)
          ------------------------------

                1 SI         2 H          3 H          4 H     

   1 SI      0.0000000    1.1500000 *  1.1500000 *  1.1500000 *
   2 H       1.1500000 *  0.0000000    1.8840497 *  1.8840497 *
   3 H       1.1500000 *  1.8840497 *  0.0000000    1.8840497 *
   4 H       1.1500000 *  1.8840497 *  1.8840497 *  0.0000000  

  * ... LESS THAN  3.000




 PLEASE NOTE:
 SEMI-EMPIRICAL CALCULATIONS ACTUALLY USE VALENCE-ONLY SLATER TYPE ORBITALS.
 FOR PLOTTING PURPOSES, STO-NG EXPANSIONS CAN APPROXIMATE THE STO FUNCTIONS.
 THE GTO BASIS LISTED BELOW USES N=  3 EXPANSIONS OF THE VALENCE STO BASIS.



     ATOMIC BASIS SET
     ----------------
 THE CONTRACTED PRIMITIVE FUNCTIONS HAVE BEEN UNNORMALIZED
 THE CONTRACTED BASIS FUNCTIONS ARE NOW NORMALIZED TO UNITY

  SHELL TYPE  PRIMITIVE        EXPONENT          CONTRACTION COEFFICIENT(S)

 SI        
 
      1   S       1             0.9770036   -0.178257797200
      1   S       2             0.1199185    0.861276166300
      1   S       3             0.0566223    0.226184196900
 
      2   P       4             7.8737265   -0.010619457880
      2   P       5             0.4354746    0.521856426400
      2   P       6             0.1678200    0.545001514300

 H         
 
      5   S       7             3.9521730    0.154328967300
      5   S       8             0.7198933    0.535328142300
      5   S       9             0.1948312    0.444634542200

 TOTAL NUMBER OF BASIS SET SHELLS             =    5
 NUMBER OF CARTESIAN GAUSSIAN BASIS FUNCTIONS =    7
 NUMBER OF ELECTRONS                          =    8
 CHARGE OF MOLECULE                           =   -1
 SPIN MULTIPLICITY                            =    1
 NUMBER OF OCCUPIED ORBITALS (ALPHA)          =    4
 NUMBER OF OCCUPIED ORBITALS (BETA )          =    4
 TOTAL NUMBER OF ATOMS                        =    4
 THE NUCLEAR REPULSION ENERGY IS       20.1690901533

 THE PARAMETERS USED IN THIS CALCULATION ARE DESCRIBED IN:

  H: (MNDO):  M.J.S. DEWAR, W. THIEL, J. AM. CHEM. SOC., 99, 4899, (1977)       
 SI: (MNDO): M.J.S.DEWAR, ET. AL. ORGANOMETALLICS  5, 375 (1986)                

 THERE ARE    1 HEAVY AND    3 LIGHT ATOMS,
 YIELDING A TOTAL OF        33 MOPAC 2E- INTEGRALS.

     $CONTRL OPTIONS
     ---------------
 SCFTYP=RHF          RUNTYP=GRADIENT     EXETYP=RUN     
 MPLEVL=       0     CITYP =NONE         CCTYP =NONE         VBTYP =NONE    
 DFTTYP=NONE         TDDFT =NONE    
 MULT  =       1     ICHARG=      -1     NZVAR =       0     COORD =ZMT     
 PP    =NONE         RELWFN=NONE         LOCAL =NONE         NUMGRD=       F
 ISPHER=      -1     NOSYM =       0     MAXIT =      30     UNITS =ANGS    
 PLTORB=       F     MOLPLT=       F     AIMPAC=       F     FRIEND=        
 NPRINT=       7     IREST =       0     GEOM  =INPUT   
 NORMF =       0     NORMP =       0     ITOL  =      20     ICUT  =       9
 INTTYP=BEST         GRDTYP=BEST         QMTTOL= 1.0E-06

     $SYSTEM OPTIONS
     ---------------
  REPLICATED MEMORY=     1000000 WORDS (ON EVERY NODE).
 DISTRIBUTED MEMDDI=           0 MILLION WORDS IN AGGREGATE,
 MEMDDI DISTRIBUTED OVER   1 PROCESSORS IS           0 WORDS/PROCESSOR.
 TOTAL MEMORY REQUESTED ON EACH PROCESSOR=     1000000 WORDS.
 TIMLIM=           1.00 MINUTES, OR       0.0 DAYS.
 PARALL= F  BALTYP=  DLB     KDIAG=    0  COREFL= F
 MXSEQ2=     300 MXSEQ3=     150

          ----------------
          PROPERTIES INPUT
          ----------------

     MOMENTS            FIELD           POTENTIAL          DENSITY
 IEMOM =       1   IEFLD =       0   IEPOT =       0   IEDEN =       0
 WHERE =COMASS     WHERE =NUCLEI     WHERE =NUCLEI     WHERE =NUCLEI  
 OUTPUT=BOTH       OUTPUT=BOTH       OUTPUT=BOTH       OUTPUT=BOTH    
 IEMINT=       0   IEFINT=       0                     IEDINT=       0
                                                       MORB  =       0
          EXTRAPOLATION IN EFFECT
 ORBITAL PRINTING OPTION: NPREO=     1     7     2     1

     -------------------------------
     INTEGRAL TRANSFORMATION OPTIONS
     -------------------------------
     NWORD  =            0
     CUTOFF = 1.0E-09     MPTRAN =       0
     DIRTRF =       F     AOINTS =DUP     

          ----------------------
          INTEGRAL INPUT OPTIONS
          ----------------------
 NOPK  =       1 NORDER=       0 SCHWRZ=       F

   --- ENCODED Z MATRIX ---
 COORD  TYPE   I   J   K   L   M   N
    1      1    4   1
    2      1    2   1
    3      2    2   1   4
    4      1    3   1
    5      2    3   1   4
    6      2    3   1   2

 THE DETERMINANT OF THE G MATRIX IS 10**(    -2)

     ------------------------------------------
     THE POINT GROUP IS CNV, NAXIS= 3, ORDER= 6
     ------------------------------------------

     DIMENSIONS OF THE SYMMETRY SUBSPACES ARE
 A1  =    3     A2  =    0     E   =    2

 ..... DONE SETTING UP THE RUN .....
 STEP CPU TIME =     0.02 TOTAL CPU TIME =        0.0 (    0.0 MIN)
 TOTAL WALL CLOCK TIME=        0.1 SECONDS, CPU UTILIZATION IS  13.33%

                    --------------------------------
                    SINGLE POINT ENERGY AND GRADIENT
                    --------------------------------

          ********************
          1 ELECTRON INTEGRALS
          ********************

          **************************
          1 AND 2 ELECTRON INTEGRALS
          **************************

 MOPAC ONE- AND TWO-ELECTRON INTEGRALS REQUIRE        89 WORDS.
 ...... END OF ONE- AND TWO-ELECTRON INTEGRALS......
 STEP CPU TIME =     0.00 TOTAL CPU TIME =        0.0 (    0.0 MIN)
 TOTAL WALL CLOCK TIME=        0.1 SECONDS, CPU UTILIZATION IS  13.33%
 ...... END OF ONE-ELECTRON INTEGRALS ......
 STEP CPU TIME =     0.00 TOTAL CPU TIME =        0.0 (    0.0 MIN)
 TOTAL WALL CLOCK TIME=        0.1 SECONDS, CPU UTILIZATION IS  13.33%

          -------------
          GUESS OPTIONS
          -------------
          GUESS =HUCKEL            NORB  =       0          NORDER=       0
          MIX   =       F          PRTMO =       F          PUNMO =       F
          TOLZ  = 1.0E-08          TOLE  = 1.0E-05
          SYMDEN=       F          PURIFY=       F

 INITIAL GUESS ORBITALS GENERATED BY HUCKEL   ROUTINE.

 SYMMETRIES FOR INITIAL GUESS ORBITALS FOLLOW.   BOTH SET(S).
     4 ORBITALS ARE OCCUPIED (    0 CORE ORBITALS).
     1=A1       2=E        3=E        4=A1       5=E        6=E        7=A1  
 ...... END OF INITIAL ORBITAL SELECTION ......
 STEP CPU TIME =     0.00 TOTAL CPU TIME =        0.0 (    0.0 MIN)
 TOTAL WALL CLOCK TIME=        0.2 SECONDS, CPU UTILIZATION IS  12.50%

          --------------------------
              R-MNDO SCF CALCULATION
          --------------------------

     NUCLEAR ENERGY =         4.8919767395
     MAXIT =   30     NPUNCH=    2
     EXTRAP=T  DAMP=F  SHIFT=F  RSTRCT=F  DIIS=F  DEM=F  SOSCF=F
     DENSITY MATRIX CONV=  1.00E-05
     MEMORY REQUIRED FOR RHF ITERS=       538 WORDS.

 ITER EX DEM     TOTAL ENERGY        E CHANGE  DENSITY CHANGE    DIIS ERROR
   1  0  0       -4.6022745203    -4.6022745203   0.067125810   0.000000000
   2  1  0       -4.6084374508    -0.0061629305   0.036802674   0.000000000
   3  2  0       -4.6097932231    -0.0013557722   0.023131099   0.000000000
   4  3  0       -4.6103651339    -0.0005719108   0.015866813   0.000000000
   5  0  0       -4.6106785485    -0.0003134146   0.047953182   0.000000000
   6  1  0       -4.6111499944    -0.0004714459   0.001289536   0.000000000
   7  2  0       -4.6111515539    -0.0000015595   0.000677935   0.000000000
   8  3  0       -4.6111520534    -0.0000004994   0.000418822   0.000000000
   9  0  0       -4.6111522676    -0.0000002143   0.001060346   0.000000000
  10  1  0       -4.6111525447    -0.0000002771   0.000019885   0.000000000
  11  2  0       -4.6111525455    -0.0000000007   0.000009299   0.000000000
  12  3  0       -4.6111525456    -0.0000000001   0.000004871   0.000000000

          -----------------
          DENSITY CONVERGED
          -----------------
     TIME TO FORM FOCK OPERATORS=       0.0 SECONDS (       0.0 SEC/ITER)
     TIME TO SOLVE SCF EQUATIONS=       0.0 SECONDS (       0.0 SEC/ITER)

 FINAL R-MNDO ENERGY IS       -4.6111525456 AFTER  12 ITERATIONS

 HEAT OF FORMATION IS      105.14088 KCAL/MOL

          ------------
          EIGENVECTORS
          ------------

                      1          2          3          4          5
                   -0.5054    -0.1921    -0.1921     0.0220     0.3692
                     A1         E          E          A1         E   
    1  SI 1  S    0.689309   0.000000  -0.000000  -0.286908  -0.000000
    2  SI 1  X   -0.000000  -0.562908   0.177460  -0.000000  -0.455852
    3  SI 1  Y   -0.000000  -0.177460  -0.562908  -0.000000   0.666215
    4  SI 1  Z    0.097336  -0.000000   0.000000   0.946591  -0.000000
    5  H  2  S    0.414479  -0.142683   0.643483   0.084951   0.480502
    6  H  3  S    0.414479  -0.485931  -0.445309   0.084951  -0.208367
    7  H  4  S    0.414479   0.628614  -0.198174   0.084951  -0.272136

                      6          7
                    0.3692     0.4367
                     E          A1  
    1  SI 1  S    0.000000   0.665235
    2  SI 1  X    0.666215  -0.000000
    3  SI 1  Y    0.455852   0.000000
    4  SI 1  Z   -0.000000   0.307396
    5  H  2  S    0.036817  -0.392840
    6  H  3  S   -0.434536  -0.392840
    7  H  4  S    0.397719  -0.392840
 ...... END OF RHF CALCULATION ......
 STEP CPU TIME =     0.00 TOTAL CPU TIME =        0.0 (    0.0 MIN)
 TOTAL WALL CLOCK TIME=        0.2 SECONDS, CPU UTILIZATION IS  11.76%

     ----------------------------------------------------------------
     PROPERTY VALUES FOR THE RHF   SELF-CONSISTENT FIELD WAVEFUNCTION
     ----------------------------------------------------------------

                    -------------
                    MOPAC CHARGES
                    -------------
         ATOM NO.   TYPE          CHARGE        ATOM  ELECTRON DENSITY
           1         SI            -0.3194          4.3194
           2         H             -0.2269          1.2269
           3         H             -0.2269          1.2269
           4         H             -0.2269          1.2269

          ---------------------
          ELECTROSTATIC MOMENTS
          ---------------------

 POINT   1           X           Y           Z (ANGS)      CHARGE
                 0.000000   -0.000000   -0.000125       -1.00 (A.U.)
         DX          DY          DZ         /D/  (DEBYE)
    -0.000000   -0.000000    1.569546    1.569546
 ...... END OF PROPERTY EVALUATION ......
 STEP CPU TIME =     0.01 TOTAL CPU TIME =        0.0 (    0.0 MIN)
 TOTAL WALL CLOCK TIME=        0.2 SECONDS, CPU UTILIZATION IS  17.65%

                         ----------------------
                         GRADIENT OF THE ENERGY
                         ----------------------

 UNITS ARE HARTREE/BOHR    E'X               E'Y               E'Z 
    1 SI               0.000000000       0.000000000       0.125693441
    2 H               -0.070273581       0.121717413      -0.041897814
    3 H               -0.070273581      -0.121717413      -0.041897814
    4 H                0.140547162       0.000000000      -0.041897814

                   MAXIMUM GRADIENT =    0.140547162
                       RMS GRADIENT =    0.081815665
  $VIB   
          IVIB=   0 IATOM=   0 ICOORD=   0 E=       -4.6111525456
  0.000000000E+00 0.000000000E+00 1.256934411E-01-7.027358053E-02 1.217174125E-01
 -4.189781369E-02-7.027358053E-02-1.217174125E-01-4.189781369E-02 1.405471621E-01
  0.000000000E+00-4.189781369E-02
 -2.191639219E-15-5.282237394E-15 1.569546287E+00

..... END OF SINGLE POINT GRADIENT .....
 STEP CPU TIME =     0.00 TOTAL CPU TIME =        0.0 (    0.0 MIN)
 TOTAL WALL CLOCK TIME=        0.2 SECONDS, CPU UTILIZATION IS  16.67%
                580000  WORDS OF DYNAMIC MEMORY USED
 EXECUTION OF GAMESS TERMINATED NORMALLY Wed Feb  3 11:57:19 2016
 DDI: 263624 bytes (0.3 MB / 0 MWords) used by master data server.

 ----------------------------------------
 CPU timing information for all processes
 ========================================
 0: 0.24 + 0.40 = 0.64
 1: 0.10 + 0.20 = 0.30
 ----------------------------------------
