----- GAMESS execution script 'rungms' -----
This job is running on host cpn-p27-15.cbls.ccr.buffalo.edu
under operating system Linux at Fri Feb 5 13:23:09 EST 2016
Available scratch disk space (Kbyte units) at beginning of the job is
Filesystem     1K-blocks  Used Available Use% Mounted on
/dev/sda6      293532636 32944 293499692   1% /scratch
GAMESS temporary binary files will be written to /scratch/288866
GAMESS supplementary output files will be written to /projects/academic/alexeyak/kosukesa/test_cal/gamess/work
Copying input file H2O_3.inp to your run's scratch directory...
MPI kickoff will run GAMESS on 1 cores in 1 nodes.
The nodes are cpn-p27-15.
The binary to be executed is /util/academic/gamess/v20130501r1/impi/gamess/gamess.01.x
MPI will run 1 compute processes and 1 data servers,
    placing 2 of each process type onto each node.
The scratch disk space on each node is /scratch/288866, with free space
Filesystem     1K-blocks  Used Available Use% Mounted on
/dev/sda6      293532636 32968 293499668   1% /scratch
[-1] MPI startup(): Imported environment partly inaccesible. Map=0 Info=b5f77f0
[-1] MPI startup(): Imported environment partly inaccesible. Map=0 Info=c6f07f0
[0] MPI startup(): shm data transfer mode
[1] MPI startup(): shm data transfer mode
[0] MPI startup(): Rank    Pid      Node name                        Pin cpu
[0] MPI startup(): 0       89219    cpn-p27-15.cbls.ccr.buffalo.edu  +1
[0] MPI startup(): 1       89220    cpn-p27-15.cbls.ccr.buffalo.edu  +1
          ******************************************************
          *         GAMESS VERSION =  1 MAY 2013 (R1)          *
          *             FROM IOWA STATE UNIVERSITY             *
          * M.W.SCHMIDT, K.K.BALDRIDGE, J.A.BOATZ, S.T.ELBERT, *
          *   M.S.GORDON, J.H.JENSEN, S.KOSEKI, N.MATSUNAGA,   *
          *          K.A.NGUYEN, S.J.SU, T.L.WINDUS,           *
          *       TOGETHER WITH M.DUPUIS, J.A.MONTGOMERY       *
          *         J.COMPUT.CHEM.  14, 1347-1363(1993)        *
          **************** 64 BIT INTEL VERSION ****************

  SINCE 1993, STUDENTS AND POSTDOCS WORKING AT IOWA STATE UNIVERSITY
  AND ALSO IN THEIR VARIOUS JOBS AFTER LEAVING ISU HAVE MADE IMPORTANT
  CONTRIBUTIONS TO THE CODE:
     IVANA ADAMOVIC, CHRISTINE AIKENS, YURI ALEXEEV, POOJA ARORA,
     ANDREY ASADCHEV, ROB BELL, PRADIPTA BANDYOPADHYAY, JONATHAN BENTZ,
     BRETT BODE, GALINA CHABAN, WEI CHEN, CHEOL HO CHOI, PAUL DAY,
     ALBERT DEFUSCO, TIM DUDLEY, DMITRI FEDOROV, GRAHAM FLETCHER,
     MARK FREITAG, KURT GLAESEMANN, DAN KEMP, GRANT MERRILL,
     NORIYUKI MINEZAWA, JONATHAN MULLIN, TAKESHI NAGATA,
     SEAN NEDD, HEATHER NETZLOFF, BOSILJKA NJEGIC, RYAN OLSON, MIKE PAK,
     JIM SHOEMAKER, LYUDMILA SLIPCHENKO, SAROM SOK, JIE SONG,
     TETSUYA TAKETSUGU, SIMON WEBB, SOOHAENG YOO, FEDERICO ZAHARIEV

  ADDITIONAL CODE HAS BEEN PROVIDED BY COLLABORATORS IN OTHER GROUPS:
     IOWA STATE UNIVERSITY:
          JOE IVANIC, LAIMUTIS BYTAUTAS, KLAUS RUEDENBERG
     UNIVERSITY OF TOKYO: KIMIHIKO HIRAO, TAKAHITO NAKAJIMA,
          TAKAO TSUNEDA, MUNEAKI KAMIYA, SUSUMU YANAGISAWA,
          KIYOSHI YAGI, MAHITO CHIBA, SEIKEN TOKURA, NAOAKI KAWAKAMI
     UNIVERSITY OF AARHUS: FRANK JENSEN
     UNIVERSITY OF IOWA: VISVALDAS KAIRYS, HUI LI
     NATIONAL INST. OF STANDARDS AND TECHNOLOGY: WALT STEVENS, DAVID GARMER
     UNIVERSITY OF PISA: BENEDETTA MENNUCCI, JACOPO TOMASI
     UNIVERSITY OF MEMPHIS: HENRY KURTZ, PRAKASHAN KORAMBATH
     UNIVERSITY OF ALBERTA: TOBY ZENG, MARIUSZ KLOBUKOWSKI
     UNIVERSITY OF NEW ENGLAND: MARK SPACKMAN
     MIE UNIVERSITY: HIROAKI UMEDA
     MICHIGAN STATE UNIVERSITY:
          KAROL KOWALSKI, MARTA WLOCH, JEFFREY GOUR, JESSE LUTZ,
          WEI LI, PIOTR PIECUCH
     UNIVERSITY OF SILESIA: MONIKA MUSIAL, STANISLAW KUCHARSKI
     FACULTES UNIVERSITAIRES NOTRE-DAME DE LA PAIX:
          OLIVIER QUINET, BENOIT CHAMPAGNE
     UNIVERSITY OF CALIFORNIA - SANTA BARBARA: BERNARD KIRTMAN
     INSTITUTE FOR MOLECULAR SCIENCE:
          KAZUYA ISHIMURA, MICHIO KATOUDA, AND SHIGERU NAGASE
     UNIVERSITY OF NOTRE DAME: DAN CHIPMAN
     KYUSHU UNIVERSITY:
          HARUYUKI NAKANO,
          FENG LONG GU, JACEK KORCHOWIEC, MARCIN MAKOWSKI, AND YURIKO AOKI,
          HIROTOSHI MORI AND EISAKU MIYOSHI
     PENNSYLVANIA STATE UNIVERSITY:
          TZVETELIN IORDANOV, CHET SWALINA, JONATHAN SKONE,
          SHARON HAMMES-SCHIFFER
     WASEDA UNIVERSITY:
          MASATO KOBAYASHI, TOMOKO AKAMA, TSUGUKI TOUMA,
          TAKESHI YOSHIKAWA, YASUHIRO IKABATA, HIROMI NAKAI
     NANJING UNIVERSITY: SHUHUA LI
     UNIVERSITY OF NEBRASKA:
          PEIFENG SU, DEJUN SI, NANDUN THELLAMUREGE, YALI WANG, HUI LI
     UNIVERSITY OF ZURICH:
          ROBERTO PEVERATI, KIM BALDRIDGE
     N. COPERNICUS UNIVERSITY AND JACKSON STATE UNIVERSITY:
          MARIA BARYSZ

 EXECUTION OF GAMESS BEGUN Fri Feb  5 13:23:09 2016

            ECHO OF THE FIRST FEW INPUT CARDS -
 INPUT CARD>! H2O test calculation                                                          
 INPUT CARD>!   semiempirical calculation, using the MOPAC/GAMESS combo                     
 INPUT CARD>!   show Fock matrix NPRINT=5                                                   
 INPUT CARD>!                                                                               
 INPUT CARD> $CONTRL SCFTYP=RHF RUNTYP=GRADIENT COORD=UNIQUE UNITS=ANGS NPRINT=5 $END       
 INPUT CARD> $SYSTEM TIMLIM=10 $END                                                         
 INPUT CARD> $BASIS  GBASIS=PM3 NGAUSS=3 $END                                               
 INPUT CARD> $DATA                                                                          
 INPUT CARD>H2O in semiempirical models(PM3)                                                
 INPUT CARD>Cn 1                                                                            
 INPUT CARD>                                                                                
 INPUT CARD>O 8.0           0           0  0                                                
 INPUT CARD>H 1.0   0.7575408  -0.5870796  0                                                
 INPUT CARD>H 1.0  -0.7575408  -0.5870796  0                                                
 INPUT CARD> $END                                                                           
    1000000 WORDS OF MEMORY AVAILABLE

     BASIS OPTIONS
     -------------
     GBASIS=PM3          IGAUSS=       0      POLAR=NONE    
     NDFUNC=       0     NFFUNC=       0     DIFFSP=       F
     NPFUNC=       0      DIFFS=       F     BASNAM=        


     RUN TITLE
     ---------
 H2O in semiempirical models(PM3)                                                

 THE POINT GROUP OF THE MOLECULE IS CN      
 THE ORDER OF THE PRINCIPAL AXIS IS     1

 TRANSFORMATION OF THE BASIS FUNCTIONS

1

                     TRANSFORMATION NUMBER   1

         X       Y       Z   


  X      1.0000  0.0000  0.0000
  Y      0.0000  1.0000  0.0000
  Z      0.0000  0.0000  1.0000



         XX      YY      ZZ      XY      XZ      YZ  


  XX     1.0000  0.0000  0.0000  0.0000  0.0000  0.0000
  YY     0.0000  1.0000  0.0000  0.0000  0.0000  0.0000
  ZZ     0.0000  0.0000  1.0000  0.0000  0.0000  0.0000
  XY     0.0000  0.0000  0.0000  1.0000  0.0000  0.0000
  XZ     0.0000  0.0000  0.0000  0.0000  1.0000  0.0000
  YZ     0.0000  0.0000  0.0000  0.0000  0.0000  1.0000



         XXX     YYY     ZZZ     XXY     XXZ     YYX     YYZ     ZZX     ZZY     XYZ 


  XXX    1.0000  0.0000  0.0000  0.0000  0.0000  0.0000  0.0000  0.0000  0.0000  0.0000
  YYY    0.0000  1.0000  0.0000  0.0000  0.0000  0.0000  0.0000  0.0000  0.0000  0.0000
  ZZZ    0.0000  0.0000  1.0000  0.0000  0.0000  0.0000  0.0000  0.0000  0.0000  0.0000
  XXY    0.0000  0.0000  0.0000  1.0000  0.0000  0.0000  0.0000  0.0000  0.0000  0.0000
  XXZ    0.0000  0.0000  0.0000  0.0000  1.0000  0.0000  0.0000  0.0000  0.0000  0.0000
  YYX    0.0000  0.0000  0.0000  0.0000  0.0000  1.0000  0.0000  0.0000  0.0000  0.0000
  YYZ    0.0000  0.0000  0.0000  0.0000  0.0000  0.0000  1.0000  0.0000  0.0000  0.0000
  ZZX    0.0000  0.0000  0.0000  0.0000  0.0000  0.0000  0.0000  1.0000  0.0000  0.0000
  ZZY    0.0000  0.0000  0.0000  0.0000  0.0000  0.0000  0.0000  0.0000  1.0000  0.0000
  XYZ    0.0000  0.0000  0.0000  0.0000  0.0000  0.0000  0.0000  0.0000  0.0000  1.0000



         XXXX    YYYY    ZZZZ    XXXY    XXXZ    YYYX    YYYZ    ZZZX    ZZZY    XXYY    XXZZ    YYZZ    XXYZ    YYXZ    ZZXY


  XXXX   1.0000  0.0000  0.0000  0.0000  0.0000  0.0000  0.0000  0.0000  0.0000  0.0000  0.0000  0.0000  0.0000  0.0000  0.0000
  YYYY   0.0000  1.0000  0.0000  0.0000  0.0000  0.0000  0.0000  0.0000  0.0000  0.0000  0.0000  0.0000  0.0000  0.0000  0.0000
  ZZZZ   0.0000  0.0000  1.0000  0.0000  0.0000  0.0000  0.0000  0.0000  0.0000  0.0000  0.0000  0.0000  0.0000  0.0000  0.0000
  XXXY   0.0000  0.0000  0.0000  1.0000  0.0000  0.0000  0.0000  0.0000  0.0000  0.0000  0.0000  0.0000  0.0000  0.0000  0.0000
  XXXZ   0.0000  0.0000  0.0000  0.0000  1.0000  0.0000  0.0000  0.0000  0.0000  0.0000  0.0000  0.0000  0.0000  0.0000  0.0000
  YYYX   0.0000  0.0000  0.0000  0.0000  0.0000  1.0000  0.0000  0.0000  0.0000  0.0000  0.0000  0.0000  0.0000  0.0000  0.0000
  YYYZ   0.0000  0.0000  0.0000  0.0000  0.0000  0.0000  1.0000  0.0000  0.0000  0.0000  0.0000  0.0000  0.0000  0.0000  0.0000
  ZZZX   0.0000  0.0000  0.0000  0.0000  0.0000  0.0000  0.0000  1.0000  0.0000  0.0000  0.0000  0.0000  0.0000  0.0000  0.0000
  ZZZY   0.0000  0.0000  0.0000  0.0000  0.0000  0.0000  0.0000  0.0000  1.0000  0.0000  0.0000  0.0000  0.0000  0.0000  0.0000
  XXYY   0.0000  0.0000  0.0000  0.0000  0.0000  0.0000  0.0000  0.0000  0.0000  1.0000  0.0000  0.0000  0.0000  0.0000  0.0000
  XXZZ   0.0000  0.0000  0.0000  0.0000  0.0000  0.0000  0.0000  0.0000  0.0000  0.0000  1.0000  0.0000  0.0000  0.0000  0.0000
  YYZZ   0.0000  0.0000  0.0000  0.0000  0.0000  0.0000  0.0000  0.0000  0.0000  0.0000  0.0000  1.0000  0.0000  0.0000  0.0000
  XXYZ   0.0000  0.0000  0.0000  0.0000  0.0000  0.0000  0.0000  0.0000  0.0000  0.0000  0.0000  0.0000  1.0000  0.0000  0.0000
  YYXZ   0.0000  0.0000  0.0000  0.0000  0.0000  0.0000  0.0000  0.0000  0.0000  0.0000  0.0000  0.0000  0.0000  1.0000  0.0000
  ZZXY   0.0000  0.0000  0.0000  0.0000  0.0000  0.0000  0.0000  0.0000  0.0000  0.0000  0.0000  0.0000  0.0000  0.0000  1.0000



          xxx     yyy     zzz     xxx     xxx     yyy     yyy     zzz     zzz     xxx     xxx     yyy     yyy     zzz     zzz
   xxx     yyy     zzz     xxy     xxz     yyz


   xxx   1.0000  0.0000  0.0000  0.0000  0.0000  0.0000  0.0000  0.0000  0.0000  0.0000  0.0000  0.0000  0.0000  0.0000  0.0000
         0.0000  0.0000  0.0000  0.0000  0.0000
   yyy   0.0000  1.0000  0.0000  0.0000  0.0000  0.0000  0.0000  0.0000  0.0000  0.0000  0.0000  0.0000  0.0000  0.0000  0.0000
         0.0000  0.0000  0.0000  0.0000  0.0000
   zzz   0.0000  0.0000  1.0000  0.0000  0.0000  0.0000  0.0000  0.0000  0.0000  0.0000  0.0000  0.0000  0.0000  0.0000  0.0000
         0.0000  0.0000  0.0000  0.0000  0.0000
   xxx   0.0000  0.0000  0.0000  1.0000  0.0000  0.0000  0.0000  0.0000  0.0000  0.0000  0.0000  0.0000  0.0000  0.0000  0.0000
         0.0000  0.0000  0.0000  0.0000  0.0000
   xxx   0.0000  0.0000  0.0000  0.0000  1.0000  0.0000  0.0000  0.0000  0.0000  0.0000  0.0000  0.0000  0.0000  0.0000  0.0000
         0.0000  0.0000  0.0000  0.0000  0.0000
   yyy   0.0000  0.0000  0.0000  0.0000  0.0000  1.0000  0.0000  0.0000  0.0000  0.0000  0.0000  0.0000  0.0000  0.0000  0.0000
         0.0000  0.0000  0.0000  0.0000  0.0000
   yyy   0.0000  0.0000  0.0000  0.0000  0.0000  0.0000  1.0000  0.0000  0.0000  0.0000  0.0000  0.0000  0.0000  0.0000  0.0000
         0.0000  0.0000  0.0000  0.0000  0.0000
   zzz   0.0000  0.0000  0.0000  0.0000  0.0000  0.0000  0.0000  1.0000  0.0000  0.0000  0.0000  0.0000  0.0000  0.0000  0.0000
         0.0000  0.0000  0.0000  0.0000  0.0000
   zzz   0.0000  0.0000  0.0000  0.0000  0.0000  0.0000  0.0000  0.0000  1.0000  0.0000  0.0000  0.0000  0.0000  0.0000  0.0000
         0.0000  0.0000  0.0000  0.0000  0.0000
   xxx   0.0000  0.0000  0.0000  0.0000  0.0000  0.0000  0.0000  0.0000  0.0000  1.0000  0.0000  0.0000  0.0000  0.0000  0.0000
         0.0000  0.0000  0.0000  0.0000  0.0000
   xxx   0.0000  0.0000  0.0000  0.0000  0.0000  0.0000  0.0000  0.0000  0.0000  0.0000  1.0000  0.0000  0.0000  0.0000  0.0000
         0.0000  0.0000  0.0000  0.0000  0.0000
   yyy   0.0000  0.0000  0.0000  0.0000  0.0000  0.0000  0.0000  0.0000  0.0000  0.0000  0.0000  1.0000  0.0000  0.0000  0.0000
         0.0000  0.0000  0.0000  0.0000  0.0000
   yyy   0.0000  0.0000  0.0000  0.0000  0.0000  0.0000  0.0000  0.0000  0.0000  0.0000  0.0000  0.0000  1.0000  0.0000  0.0000
         0.0000  0.0000  0.0000  0.0000  0.0000
   zzz   0.0000  0.0000  0.0000  0.0000  0.0000  0.0000  0.0000  0.0000  0.0000  0.0000  0.0000  0.0000  0.0000  1.0000  0.0000
         0.0000  0.0000  0.0000  0.0000  0.0000
   zzz   0.0000  0.0000  0.0000  0.0000  0.0000  0.0000  0.0000  0.0000  0.0000  0.0000  0.0000  0.0000  0.0000  0.0000  1.0000
         0.0000  0.0000  0.0000  0.0000  0.0000
   xxx   0.0000  0.0000  0.0000  0.0000  0.0000  0.0000  0.0000  0.0000  0.0000  0.0000  0.0000  0.0000  0.0000  0.0000  0.0000
         0.0000  0.0000  0.0000  0.0000  0.0000
   yyy   0.0000  0.0000  0.0000  0.0000  0.0000  0.0000  0.0000  0.0000  0.0000  0.0000  0.0000  0.0000  0.0000  0.0000  0.0000
         1.0000  0.0000  0.0000  0.0000  0.0000
   zzz   0.0000  0.0000  0.0000  0.0000  0.0000  0.0000  0.0000  0.0000  0.0000  0.0000  0.0000  0.0000  0.0000  0.0000  0.0000
         0.0000  1.0000  0.0000  0.0000  0.0000
   xxy   0.0000  0.0000  0.0000  0.0000  0.0000  0.0000  0.0000  0.0000  0.0000  0.0000  0.0000  0.0000  0.0000  0.0000  0.0000
         0.0000  0.0000  1.0000  0.0000  0.0000
   xxz   0.0000  0.0000  0.0000  0.0000  0.0000  0.0000  0.0000  0.0000  0.0000  0.0000  0.0000  0.0000  0.0000  0.0000  0.0000
         0.0000  0.0000  0.0000  1.0000  0.0000
   yyz   0.0000  0.0000  0.0000  0.0000  0.0000  0.0000  0.0000  0.0000  0.0000  0.0000  0.0000  0.0000  0.0000  0.0000  0.0000
         0.0000  0.0000  0.0000  0.0000  1.0000



                                    x       x       y       y       z       z      x4      x4      y4      y4      z4      z4
    x4      y4      z4      x3      x3      y3     x3y     x3z     y3x     y3z     z3x     z3y    x2y2


         1.0000  0.0000  0.0000  0.0000  0.0000  0.0000  0.0000  0.0000  0.0000  0.0000  0.0000  0.0000  0.0000  0.0000  0.0000
         0.0000  0.0000  0.0000  0.0000  0.0000  0.0000  0.0000  0.0000  0.0000  0.0000  0.0000  0.0000
         0.0000  1.0000  0.0000  0.0000  0.0000  0.0000  0.0000  0.0000  0.0000  0.0000  0.0000  0.0000  0.0000  0.0000  0.0000
         0.0000  0.0000  0.0000  0.0000  0.0000  0.0000  0.0000  0.0000  0.0000  0.0000  0.0000  0.0000
         0.0000  0.0000  1.0000  0.0000  0.0000  0.0000  0.0000  0.0000  0.0000  0.0000  0.0000  0.0000  0.0000  0.0000  0.0000
         0.0000  0.0000  0.0000  0.0000  0.0000  0.0000  0.0000  0.0000  0.0000  0.0000  0.0000  0.0000
     x   0.0000  0.0000  0.0000  1.0000  0.0000  0.0000  0.0000  0.0000  0.0000  0.0000  0.0000  0.0000  0.0000  0.0000  0.0000
         0.0000  0.0000  0.0000  0.0000  0.0000  0.0000  0.0000  0.0000  0.0000  0.0000  0.0000  0.0000
     x   0.0000  0.0000  0.0000  0.0000  1.0000  0.0000  0.0000  0.0000  0.0000  0.0000  0.0000  0.0000  0.0000  0.0000  0.0000
         0.0000  0.0000  0.0000  0.0000  0.0000  0.0000  0.0000  0.0000  0.0000  0.0000  0.0000  0.0000
     y   0.0000  0.0000  0.0000  0.0000  0.0000  1.0000  0.0000  0.0000  0.0000  0.0000  0.0000  0.0000  0.0000  0.0000  0.0000
         0.0000  0.0000  0.0000  0.0000  0.0000  0.0000  0.0000  0.0000  0.0000  0.0000  0.0000  0.0000
     y   0.0000  0.0000  0.0000  0.0000  0.0000  0.0000  1.0000  0.0000  0.0000  0.0000  0.0000  0.0000  0.0000  0.0000  0.0000
         0.0000  0.0000  0.0000  0.0000  0.0000  0.0000  0.0000  0.0000  0.0000  0.0000  0.0000  0.0000
     z   0.0000  0.0000  0.0000  0.0000  0.0000  0.0000  0.0000  1.0000  0.0000  0.0000  0.0000  0.0000  0.0000  0.0000  0.0000
         0.0000  0.0000  0.0000  0.0000  0.0000  0.0000  0.0000  0.0000  0.0000  0.0000  0.0000  0.0000
     z   0.0000  0.0000  0.0000  0.0000  0.0000  0.0000  0.0000  0.0000  1.0000  0.0000  0.0000  0.0000  0.0000  0.0000  0.0000
         0.0000  0.0000  0.0000  0.0000  0.0000  0.0000  0.0000  0.0000  0.0000  0.0000  0.0000  0.0000
    x4   0.0000  0.0000  0.0000  0.0000  0.0000  0.0000  0.0000  0.0000  0.0000  1.0000  0.0000  0.0000  0.0000  0.0000  0.0000
         0.0000  0.0000  0.0000  0.0000  0.0000  0.0000  0.0000  0.0000  0.0000  0.0000  0.0000  0.0000
    x4   0.0000  0.0000  0.0000  0.0000  0.0000  0.0000  0.0000  0.0000  0.0000  0.0000  1.0000  0.0000  0.0000  0.0000  0.0000
         0.0000  0.0000  0.0000  0.0000  0.0000  0.0000  0.0000  0.0000  0.0000  0.0000  0.0000  0.0000
    y4   0.0000  0.0000  0.0000  0.0000  0.0000  0.0000  0.0000  0.0000  0.0000  0.0000  0.0000  1.0000  0.0000  0.0000  0.0000
         0.0000  0.0000  0.0000  0.0000  0.0000  0.0000  0.0000  0.0000  0.0000  0.0000  0.0000  0.0000
    y4   0.0000  0.0000  0.0000  0.0000  0.0000  0.0000  0.0000  0.0000  0.0000  0.0000  0.0000  0.0000  1.0000  0.0000  0.0000
         0.0000  0.0000  0.0000  0.0000  0.0000  0.0000  0.0000  0.0000  0.0000  0.0000  0.0000  0.0000
    z4   0.0000  0.0000  0.0000  0.0000  0.0000  0.0000  0.0000  0.0000  0.0000  0.0000  0.0000  0.0000  0.0000  1.0000  0.0000
         0.0000  0.0000  0.0000  0.0000  0.0000  0.0000  0.0000  0.0000  0.0000  0.0000  0.0000  0.0000
    z4   0.0000  0.0000  0.0000  0.0000  0.0000  0.0000  0.0000  0.0000  0.0000  0.0000  0.0000  0.0000  0.0000  0.0000  1.0000
         0.0000  0.0000  0.0000  0.0000  0.0000  0.0000  0.0000  0.0000  0.0000  0.0000  0.0000  0.0000
    x4   0.0000  0.0000  0.0000  0.0000  0.0000  0.0000  0.0000  0.0000  0.0000  0.0000  0.0000  0.0000  0.0000  0.0000  0.0000
         0.0000  0.0000  0.0000  0.0000  0.0000  0.0000  0.0000  0.0000  0.0000  0.0000  0.0000  0.0000
    y4   0.0000  0.0000  0.0000  0.0000  0.0000  0.0000  0.0000  0.0000  0.0000  0.0000  0.0000  0.0000  0.0000  0.0000  0.0000
         1.0000  0.0000  0.0000  0.0000  0.0000  0.0000  0.0000  0.0000  0.0000  0.0000  0.0000  0.0000
    z4   0.0000  0.0000  0.0000  0.0000  0.0000  0.0000  0.0000  0.0000  0.0000  0.0000  0.0000  0.0000  0.0000  0.0000  0.0000
         0.0000  1.0000  0.0000  0.0000  0.0000  0.0000  0.0000  0.0000  0.0000  0.0000  0.0000  0.0000
    x3   0.0000  0.0000  0.0000  0.0000  0.0000  0.0000  0.0000  0.0000  0.0000  0.0000  0.0000  0.0000  0.0000  0.0000  0.0000
         0.0000  0.0000  1.0000  0.0000  0.0000  0.0000  0.0000  0.0000  0.0000  0.0000  0.0000  0.0000
    x3   0.0000  0.0000  0.0000  0.0000  0.0000  0.0000  0.0000  0.0000  0.0000  0.0000  0.0000  0.0000  0.0000  0.0000  0.0000
         0.0000  0.0000  0.0000  1.0000  0.0000  0.0000  0.0000  0.0000  0.0000  0.0000  0.0000  0.0000
    y3   0.0000  0.0000  0.0000  0.0000  0.0000  0.0000  0.0000  0.0000  0.0000  0.0000  0.0000  0.0000  0.0000  0.0000  0.0000
         0.0000  0.0000  0.0000  0.0000  1.0000  0.0000  0.0000  0.0000  0.0000  0.0000  0.0000  0.0000
   x3y   0.0000  0.0000  0.0000  0.0000  0.0000  0.0000  0.0000  0.0000  0.0000  0.0000  0.0000  0.0000  0.0000  0.0000  0.0000
         0.0000  0.0000  0.0000  0.0000  0.0000  1.0000  0.0000  0.0000  0.0000  0.0000  0.0000  0.0000
   x3z   0.0000  0.0000  0.0000  0.0000  0.0000  0.0000  0.0000  0.0000  0.0000  0.0000  0.0000  0.0000  0.0000  0.0000  0.0000
         0.0000  0.0000  0.0000  0.0000  0.0000  0.0000  1.0000  0.0000  0.0000  0.0000  0.0000  0.0000
   y3x   0.0000  0.0000  0.0000  0.0000  0.0000  0.0000  0.0000  0.0000  0.0000  0.0000  0.0000  0.0000  0.0000  0.0000  0.0000
         0.0000  0.0000  0.0000  0.0000  0.0000  0.0000  0.0000  1.0000  0.0000  0.0000  0.0000  0.0000
   y3z   0.0000  0.0000  0.0000  0.0000  0.0000  0.0000  0.0000  0.0000  0.0000  0.0000  0.0000  0.0000  0.0000  0.0000  0.0000
         0.0000  0.0000  0.0000  0.0000  0.0000  0.0000  0.0000  0.0000  1.0000  0.0000  0.0000  0.0000
   z3x   0.0000  0.0000  0.0000  0.0000  0.0000  0.0000  0.0000  0.0000  0.0000  0.0000  0.0000  0.0000  0.0000  0.0000  0.0000
         0.0000  0.0000  0.0000  0.0000  0.0000  0.0000  0.0000  0.0000  0.0000  1.0000  0.0000  0.0000
   z3y   0.0000  0.0000  0.0000  0.0000  0.0000  0.0000  0.0000  0.0000  0.0000  0.0000  0.0000  0.0000  0.0000  0.0000  0.0000
         0.0000  0.0000  0.0000  0.0000  0.0000  0.0000  0.0000  0.0000  0.0000  0.0000  1.0000  0.0000
  x2y2   0.0000  0.0000  0.0000  0.0000  0.0000  0.0000  0.0000  0.0000  0.0000  0.0000  0.0000  0.0000  0.0000  0.0000  0.0000
         0.0000  0.0000  0.0000  0.0000  0.0000  0.0000  0.0000  0.0000  0.0000  0.0000  0.0000  1.0000




 ATOM      ATOMIC                      COORDINATES (BOHR)
           CHARGE         X                   Y                   Z
 O           8.0     0.0000000000        0.0000000000        0.0000000000
 H           1.0     1.4315445365       -1.1094195770        0.0000000000
 H           1.0    -1.4315445365       -1.1094195770        0.0000000000

          INTERNUCLEAR DISTANCES (ANGS.)
          ------------------------------

                1 O          2 H          3 H     

   1 O       0.0000000    0.9584000 *  0.9584000 *
   2 H       0.9584000 *  0.0000000    1.5150816 *
   3 H       0.9584000 *  1.5150816 *  0.0000000  

  * ... LESS THAN  3.000




 PLEASE NOTE:
 SEMI-EMPIRICAL CALCULATIONS ACTUALLY USE VALENCE-ONLY SLATER TYPE ORBITALS.
 FOR PLOTTING PURPOSES, STO-NG EXPANSIONS CAN APPROXIMATE THE STO FUNCTIONS.
 THE GTO BASIS LISTED BELOW USES N=  3 EXPANSIONS OF THE VALENCE STO BASIS.



     ATOMIC BASIS SET
     ----------------
 THE CONTRACTED PRIMITIVE FUNCTIONS HAVE BEEN UNNORMALIZED
 THE CONTRACTED BASIS FUNCTIONS ARE NOW NORMALIZED TO UNITY

  SHELL TYPE  PRIMITIVE        EXPONENT          CONTRACTION COEFFICIENT(S)

 O         
 
      1   S       1            37.2102162   -0.059944749340
      1   S       2             2.2595307    0.596038539800
      1   S       3             0.8674671    0.458178629100
 
      2   P       4             5.2481516    0.162394855300
      2   P       5             1.3469212    0.566170886200
      2   P       6             0.4572992    0.422307175200

 H         
 
      3   S       7             2.0865392    0.154328967300
      3   S       8             0.3800657    0.535328142300
      3   S       9             0.1028606    0.444634542200

 H         
 
      4   S      10             2.0865392    0.154328967300
      4   S      11             0.3800657    0.535328142300
      4   S      12             0.1028606    0.444634542200

 TOTAL NUMBER OF BASIS SET SHELLS             =    4
 NUMBER OF CARTESIAN GAUSSIAN BASIS FUNCTIONS =    6
 NUMBER OF ELECTRONS                          =    8
 CHARGE OF MOLECULE                           =    0
 SPIN MULTIPLICITY                            =    1
 NUMBER OF OCCUPIED ORBITALS (ALPHA)          =    4
 NUMBER OF OCCUPIED ORBITALS (BETA )          =    4
 TOTAL NUMBER OF ATOMS                        =    3
 THE NUCLEAR REPULSION ENERGY IS        9.1836180203

 THE PARAMETERS USED IN THIS CALCULATION ARE DESCRIBED IN:

  H: (PM3): J. J. P. STEWART, J. COMP. CHEM. 10, 209 (1989).                    
  O: (PM3): J. J. P. STEWART, J. COMP. CHEM. 10, 209 (1989).                    

 THERE ARE    1 HEAVY AND    2 LIGHT ATOMS,
 YIELDING A TOTAL OF        21 MOPAC 2E- INTEGRALS.

     $CONTRL OPTIONS
     ---------------
 SCFTYP=RHF          RUNTYP=GRADIENT     EXETYP=RUN     
 MPLEVL=       0     CITYP =NONE         CCTYP =NONE         VBTYP =NONE    
 DFTTYP=NONE         TDDFT =NONE    
 MULT  =       1     ICHARG=       0     NZVAR =       0     COORD =UNIQUE  
 PP    =NONE         RELWFN=NONE         LOCAL =NONE         NUMGRD=       F
 ISPHER=      -1     NOSYM =       0     MAXIT =      30     UNITS =ANGS    
 PLTORB=       F     MOLPLT=       F     AIMPAC=       F     FRIEND=        
 NPRINT=       5     IREST =       0     GEOM  =INPUT   
 NORMF =       0     NORMP =       0     ITOL  =      20     ICUT  =       9
 INTTYP=BEST         GRDTYP=BEST         QMTTOL= 1.0E-06

     $SYSTEM OPTIONS
     ---------------
  REPLICATED MEMORY=     1000000 WORDS (ON EVERY NODE).
 DISTRIBUTED MEMDDI=           0 MILLION WORDS IN AGGREGATE,
 MEMDDI DISTRIBUTED OVER   1 PROCESSORS IS           0 WORDS/PROCESSOR.
 TOTAL MEMORY REQUESTED ON EACH PROCESSOR=     1000000 WORDS.
 TIMLIM=          10.00 MINUTES, OR       0.0 DAYS.
 PARALL= F  BALTYP=  DLB     KDIAG=    0  COREFL= F
 MXSEQ2=     300 MXSEQ3=     150

          ----------------
          PROPERTIES INPUT
          ----------------

     MOMENTS            FIELD           POTENTIAL          DENSITY
 IEMOM =       1   IEFLD =       0   IEPOT =       0   IEDEN =       0
 WHERE =COMASS     WHERE =NUCLEI     WHERE =NUCLEI     WHERE =NUCLEI  
 OUTPUT=BOTH       OUTPUT=BOTH       OUTPUT=BOTH       OUTPUT=BOTH    
 IEMINT=       0   IEFINT=       0                     IEDINT=       0
                                                       MORB  =       0
          EXTRAPOLATION IN EFFECT
 ORBITAL PRINTING OPTION: NPREO=     1     6     2     1

     -------------------------------
     INTEGRAL TRANSFORMATION OPTIONS
     -------------------------------
     NWORD  =            0
     CUTOFF = 1.0E-09     MPTRAN =       0
     DIRTRF =       F     AOINTS =DUP     

          ----------------------
          INTEGRAL INPUT OPTIONS
          ----------------------
 NOPK  =       1 NORDER=       0 SCHWRZ=       F

     ------------------------------------------
     THE POINT GROUP IS CN , NAXIS= 1, ORDER= 1
     ------------------------------------------

     DIMENSIONS OF THE SYMMETRY SUBSPACES ARE
 A   =    6

 ..... DONE SETTING UP THE RUN .....
 STEP CPU TIME =     0.02 TOTAL CPU TIME =        0.0 (    0.0 MIN)
 TOTAL WALL CLOCK TIME=        0.0 SECONDS, CPU UTILIZATION IS 100.00%

                    --------------------------------
                    SINGLE POINT ENERGY AND GRADIENT
                    --------------------------------

          ********************
          1 ELECTRON INTEGRALS
          ********************

          **************************
          1 AND 2 ELECTRON INTEGRALS
          **************************

 MOPAC ONE- AND TWO-ELECTRON INTEGRALS REQUIRE        63 WORDS.
 ...... END OF ONE- AND TWO-ELECTRON INTEGRALS......
 STEP CPU TIME =     0.00 TOTAL CPU TIME =        0.0 (    0.0 MIN)
 TOTAL WALL CLOCK TIME=        0.0 SECONDS, CPU UTILIZATION IS 100.00%
 ...... END OF ONE-ELECTRON INTEGRALS ......
 STEP CPU TIME =     0.00 TOTAL CPU TIME =        0.0 (    0.0 MIN)
 TOTAL WALL CLOCK TIME=        0.0 SECONDS, CPU UTILIZATION IS 100.00%

          -------------
          GUESS OPTIONS
          -------------
          GUESS =HUCKEL            NORB  =       0          NORDER=       0
          MIX   =       F          PRTMO =       F          PUNMO =       F
          TOLZ  = 1.0E-08          TOLE  = 1.0E-05
          SYMDEN=       F          PURIFY=       F

 INITIAL GUESS ORBITALS GENERATED BY HUCKEL   ROUTINE.

 SYMMETRIES FOR INITIAL GUESS ORBITALS FOLLOW.   BOTH SET(S).
     4 ORBITALS ARE OCCUPIED (    0 CORE ORBITALS).
     1=A        2=A        3=A        4=A        5=A        6=A   
 ...... END OF INITIAL ORBITAL SELECTION ......
 STEP CPU TIME =     0.00 TOTAL CPU TIME =        0.0 (    0.0 MIN)
 TOTAL WALL CLOCK TIME=        0.0 SECONDS, CPU UTILIZATION IS 100.00%

 TRANSFORMATION OF THE BASIS FUNCTIONS

1

                     TRANSFORMATION NUMBER   1

         X       Y       Z   


  X      1.0000  0.0000  0.0000
  Y      0.0000  1.0000  0.0000
  Z      0.0000  0.0000  1.0000



         XX      YY      ZZ      XY      XZ      YZ  


  XX     1.0000  0.0000  0.0000  0.0000  0.0000  0.0000
  YY     0.0000  1.0000  0.0000  0.0000  0.0000  0.0000
  ZZ     0.0000  0.0000  1.0000  0.0000  0.0000  0.0000
  XY     0.0000  0.0000  0.0000  1.0000  0.0000  0.0000
  XZ     0.0000  0.0000  0.0000  0.0000  1.0000  0.0000
  YZ     0.0000  0.0000  0.0000  0.0000  0.0000  1.0000



         XXX     YYY     ZZZ     XXY     XXZ     YYX     YYZ     ZZX     ZZY     XYZ 


  XXX    1.0000  0.0000  0.0000  0.0000  0.0000  0.0000  0.0000  0.0000  0.0000  0.0000
  YYY    0.0000  1.0000  0.0000  0.0000  0.0000  0.0000  0.0000  0.0000  0.0000  0.0000
  ZZZ    0.0000  0.0000  1.0000  0.0000  0.0000  0.0000  0.0000  0.0000  0.0000  0.0000
  XXY    0.0000  0.0000  0.0000  1.0000  0.0000  0.0000  0.0000  0.0000  0.0000  0.0000
  XXZ    0.0000  0.0000  0.0000  0.0000  1.0000  0.0000  0.0000  0.0000  0.0000  0.0000
  YYX    0.0000  0.0000  0.0000  0.0000  0.0000  1.0000  0.0000  0.0000  0.0000  0.0000
  YYZ    0.0000  0.0000  0.0000  0.0000  0.0000  0.0000  1.0000  0.0000  0.0000  0.0000
  ZZX    0.0000  0.0000  0.0000  0.0000  0.0000  0.0000  0.0000  1.0000  0.0000  0.0000
  ZZY    0.0000  0.0000  0.0000  0.0000  0.0000  0.0000  0.0000  0.0000  1.0000  0.0000
  XYZ    0.0000  0.0000  0.0000  0.0000  0.0000  0.0000  0.0000  0.0000  0.0000  1.0000



         XXXX    YYYY    ZZZZ    XXXY    XXXZ    YYYX    YYYZ    ZZZX    ZZZY    XXYY    XXZZ    YYZZ    XXYZ    YYXZ    ZZXY


  XXXX   1.0000  0.0000  0.0000  0.0000  0.0000  0.0000  0.0000  0.0000  0.0000  0.0000  0.0000  0.0000  0.0000  0.0000  0.0000
  YYYY   0.0000  1.0000  0.0000  0.0000  0.0000  0.0000  0.0000  0.0000  0.0000  0.0000  0.0000  0.0000  0.0000  0.0000  0.0000
  ZZZZ   0.0000  0.0000  1.0000  0.0000  0.0000  0.0000  0.0000  0.0000  0.0000  0.0000  0.0000  0.0000  0.0000  0.0000  0.0000
  XXXY   0.0000  0.0000  0.0000  1.0000  0.0000  0.0000  0.0000  0.0000  0.0000  0.0000  0.0000  0.0000  0.0000  0.0000  0.0000
  XXXZ   0.0000  0.0000  0.0000  0.0000  1.0000  0.0000  0.0000  0.0000  0.0000  0.0000  0.0000  0.0000  0.0000  0.0000  0.0000
  YYYX   0.0000  0.0000  0.0000  0.0000  0.0000  1.0000  0.0000  0.0000  0.0000  0.0000  0.0000  0.0000  0.0000  0.0000  0.0000
  YYYZ   0.0000  0.0000  0.0000  0.0000  0.0000  0.0000  1.0000  0.0000  0.0000  0.0000  0.0000  0.0000  0.0000  0.0000  0.0000
  ZZZX   0.0000  0.0000  0.0000  0.0000  0.0000  0.0000  0.0000  1.0000  0.0000  0.0000  0.0000  0.0000  0.0000  0.0000  0.0000
  ZZZY   0.0000  0.0000  0.0000  0.0000  0.0000  0.0000  0.0000  0.0000  1.0000  0.0000  0.0000  0.0000  0.0000  0.0000  0.0000
  XXYY   0.0000  0.0000  0.0000  0.0000  0.0000  0.0000  0.0000  0.0000  0.0000  1.0000  0.0000  0.0000  0.0000  0.0000  0.0000
  XXZZ   0.0000  0.0000  0.0000  0.0000  0.0000  0.0000  0.0000  0.0000  0.0000  0.0000  1.0000  0.0000  0.0000  0.0000  0.0000
  YYZZ   0.0000  0.0000  0.0000  0.0000  0.0000  0.0000  0.0000  0.0000  0.0000  0.0000  0.0000  1.0000  0.0000  0.0000  0.0000
  XXYZ   0.0000  0.0000  0.0000  0.0000  0.0000  0.0000  0.0000  0.0000  0.0000  0.0000  0.0000  0.0000  1.0000  0.0000  0.0000
  YYXZ   0.0000  0.0000  0.0000  0.0000  0.0000  0.0000  0.0000  0.0000  0.0000  0.0000  0.0000  0.0000  0.0000  1.0000  0.0000
  ZZXY   0.0000  0.0000  0.0000  0.0000  0.0000  0.0000  0.0000  0.0000  0.0000  0.0000  0.0000  0.0000  0.0000  0.0000  1.0000




          --------------------------
               R-PM3 SCF CALCULATION
          --------------------------

     NUCLEAR ENERGY =         5.4659217704
     MAXIT =   30     NPUNCH=    2
     EXTRAP=T  DAMP=F  SHIFT=F  RSTRCT=F  DIIS=F  DEM=F  SOSCF=F
     DENSITY MATRIX CONV=  1.00E-05
     MEMORY REQUIRED FOR RHF ITERS=       405 WORDS.

 ITER EX DEM     TOTAL ENERGY        E CHANGE  DENSITY CHANGE    DIIS ERROR

                TWO-ELECTRON PART OF FOCK MATRIX (MPCG)

                      1          2          3          4          5

    1  O  1  S    2.912103
    2  O  1  X    0.000000   3.080064
    3  O  1  Y   -0.113188  -0.000000   3.091240
    4  O  1  Z    0.000000   0.000000  -0.000000   2.969488
    5  H  2  S   -0.107519  -0.126868   0.113478  -0.000000   2.925972
    6  H  3  S   -0.107519   0.126868   0.113478  -0.000000  -0.038388

                      6

    6  H  3  S    2.925972
 *** START OF DEBUG OUTPUT FOR ITERATION                     1
 SKELETON FOCK MATRIX

                      1          2          3          4          5

    1  O  1  S    2.912103
    2  O  1  X    0.000000   3.080064
    3  O  1  Y   -0.113188  -0.000000   3.091240
    4  O  1  Z    0.000000   0.000000  -0.000000   2.969488
    5  H  2  S   -0.107519  -0.126868   0.113478  -0.000000   2.925972
    6  H  3  S   -0.107519   0.126868   0.113478  -0.000000  -0.038388

                      6

    6  H  3  S    2.925972
 SYMMETRIZED FOCK OPERATOR

                      1          2          3          4          5

    1  O  1  S    2.912103
    2  O  1  X    0.000000   3.080064
    3  O  1  Y   -0.113188  -0.000000   3.091240
    4  O  1  Z    0.000000   0.000000  -0.000000   2.969488
    5  H  2  S   -0.107519  -0.126868   0.113478  -0.000000   2.925972
    6  H  3  S   -0.107519   0.126868   0.113478  -0.000000  -0.038388

                      6

    6  H  3  S    2.925972

 EHF1 =      -5.781179090967 EHF2 =     -28.868108029551 EHF =     -17.324643560259
 TOTAL FOCK OPERATOR

                      1          2          3          4          5

    1  O  1  S   -1.071657
    2  O  1  X    0.000000  -0.350299
    3  O  1  Y   -0.061887  -0.000000  -0.324497
    4  O  1  Z    0.000000   0.000000  -0.000000  -0.424255
    5  H  2  S   -0.376845  -0.267560   0.222512  -0.000000  -0.208872
    6  H  3  S   -0.376845   0.267560   0.222512  -0.000000  -0.120328

                      6

    6  H  3  S   -0.208872
 LAGRANGE MULTIPLIER MATRIX

             1           2           3           4

    1   -2.6613649   0.0000000  -0.2061538   0.0000000
    2    0.0000000  -1.2121127  -0.0000000   0.0000000
    3   -0.2061538  -0.0000000  -1.0591918  -0.0000000
    4    0.0000000   0.0000000  -0.0000000  -0.8485098
    5    0.2883491   0.0000000   0.0855571   0.0000000
    6   -0.0000000  -0.2080340  -0.0000000  -0.0000000
 NEW ORBITALS

                      1          2          3          4          5

                   -1.3585    -0.6198    -0.5174    -0.4243     0.1506

    1  O  1  S   -0.872075  -0.000000   0.334104  -0.000000  -0.357575
    2  O  1  X    0.000000   0.814519   0.000000   0.000000   0.000000
    3  O  1  Y    0.093966   0.000000   0.831406   0.000000   0.547663
    4  O  1  Z    0.000000  -0.000000  -0.000000   1.000000  -0.000000
    5  H  2  S   -0.339600   0.410219  -0.313958   0.000000   0.534886
    6  H  3  S   -0.339600  -0.410219  -0.313958   0.000000   0.534886

                      6

                    0.1810

    1  O  1  S    0.000000
    2  O  1  X    0.580137
    3  O  1  Y   -0.000000
    4  O  1  Z    0.000000
    5  H  2  S   -0.575952
    6  H  3  S    0.575952
 NEW DENSITY MATRIX

                      1          2          3          4          5

    1  O  1  S    1.744280
    2  O  1  X   -0.000000   1.326881
    3  O  1  Y    0.391661   0.000000   1.400130
    4  O  1  Z   -0.000000  -0.000000   0.000000   2.000000
    5  H  2  S    0.382524   0.668262  -0.585874   0.000000   0.764354
    6  H  3  S    0.382524  -0.668262  -0.585874   0.000000   0.091235

                      6

    6  H  3  S    0.764354
 *** END OF DEBUG OUTPUT FOR ITERATION                     1
   1  0  0      -11.8587217898   -11.8587217898   0.234298806   0.000000000

                TWO-ELECTRON PART OF FOCK MATRIX (MPCG)

                      1          2          3          4          5

    1  O  1  S    2.899862
    2  O  1  X    0.000000   3.108829
    3  O  1  Y   -0.102827  -0.000000   3.083471
    4  O  1  Z    0.000000   0.000000  -0.000000   2.950548
    5  H  2  S   -0.093821  -0.142279   0.123049  -0.000000   2.916158
    6  H  3  S   -0.093821   0.142279   0.123049  -0.000000  -0.013404

                      6

    6  H  3  S    2.916158
 *** START OF DEBUG OUTPUT FOR ITERATION                     2
 SKELETON FOCK MATRIX

                      1          2          3          4          5

    1  O  1  S    2.899862
    2  O  1  X    0.000000   3.108829
    3  O  1  Y   -0.102827  -0.000000   3.083471
    4  O  1  Z    0.000000   0.000000  -0.000000   2.950548
    5  H  2  S   -0.093821  -0.142279   0.123049  -0.000000   2.916158
    6  H  3  S   -0.093821   0.142279   0.123049  -0.000000  -0.013404

                      6

    6  H  3  S    2.916158
 SYMMETRIZED FOCK OPERATOR

                      1          2          3          4          5

    1  O  1  S    2.899862
    2  O  1  X    0.000000   3.108829
    3  O  1  Y   -0.102827  -0.000000   3.083471
    4  O  1  Z    0.000000   0.000000  -0.000000   2.950548
    5  H  2  S   -0.093821  -0.142279   0.123049  -0.000000   2.916158
    6  H  3  S   -0.093821   0.142279   0.123049  -0.000000  -0.013404

                      6

    6  H  3  S    2.916158

 EHF1 =      -5.916861149541 EHF2 =     -28.881160162930 EHF =     -17.399010656235
 TOTAL FOCK OPERATOR

                      1          2          3          4          5

    1  O  1  S   -1.083898
    2  O  1  X    0.000000  -0.321535
    3  O  1  Y   -0.051525  -0.000000  -0.332266
    4  O  1  Z    0.000000   0.000000  -0.000000  -0.443195
    5  H  2  S   -0.363147  -0.282971   0.232082  -0.000000  -0.218687
    6  H  3  S   -0.363147   0.282971   0.232082  -0.000000  -0.095345

                      6

    6  H  3  S   -0.218687
 LAGRANGE MULTIPLIER MATRIX

             1           2           3           4

    1   -2.7021187  -0.0000000  -0.0051393   0.0000000
    2   -0.0000000  -1.2660582  -0.0000000  -0.0000000
    3   -0.0051393  -0.0000000  -1.0622949  -0.0000000
    4    0.0000000  -0.0000000  -0.0000000  -0.8863894
    5   -0.0541497   0.0000000   0.0096757   0.0000000
    6    0.0000000   0.0743185  -0.0000000  -0.0000000
 NEW ORBITALS

                      1          2          3          4          5

                   -1.3516    -0.6347    -0.5312    -0.4432     0.1525

    1  O  1  S   -0.877353   0.000000   0.339193  -0.000000  -0.339411
    2  O  1  X    0.000000   0.787518  -0.000000  -0.000000   0.000000
    3  O  1  Y    0.106321   0.000000   0.827168   0.000000   0.551806
    4  O  1  Z   -0.000000   0.000000   0.000000   1.000000  -0.000000
    5  H  2  S   -0.330868   0.435784  -0.316814   0.000000   0.538661
    6  H  3  S   -0.330868  -0.435784  -0.316814   0.000000   0.538661

                      6

                    0.1898

    1  O  1  S    0.000000
    2  O  1  X    0.616292
    3  O  1  Y   -0.000000
    4  O  1  Z   -0.000000
    5  H  2  S   -0.556859
    6  H  3  S    0.556859
 NEW DENSITY MATRIX

                      1          2          3          4          5

    1  O  1  S    1.769601
    2  O  1  X   -0.000000   1.240369
    3  O  1  Y    0.374577   0.000000   1.391021
    4  O  1  Z   -0.000000   0.000000   0.000000   2.000000
    5  H  2  S    0.365654   0.686376  -0.594472   0.000000   0.799505
    6  H  3  S    0.365654  -0.686376  -0.594472   0.000000   0.039874

                      6

    6  H  3  S    0.799505
 *** END OF DEBUG OUTPUT FOR ITERATION                     2
   2  1  0      -11.9330888858    -0.0743670960   0.086512591   0.000000000

                TWO-ELECTRON PART OF FOCK MATRIX (MPCG)

                      1          2          3          4          5

    1  O  1  S    2.898572
    2  O  1  X    0.000000   3.120411
    3  O  1  Y   -0.101855  -0.000000   3.079557
    4  O  1  Z    0.000000  -0.000000  -0.000000   2.944098
    5  H  2  S   -0.090913  -0.145633   0.124625  -0.000000   2.909230
    6  H  3  S   -0.090913   0.145633   0.124625  -0.000000  -0.005858

                      6

    6  H  3  S    2.909230
 *** START OF DEBUG OUTPUT FOR ITERATION                     3
 SKELETON FOCK MATRIX

                      1          2          3          4          5

    1  O  1  S    2.898572
    2  O  1  X    0.000000   3.120411
    3  O  1  Y   -0.101855  -0.000000   3.079557
    4  O  1  Z    0.000000  -0.000000  -0.000000   2.944098
    5  H  2  S   -0.090913  -0.145633   0.124625  -0.000000   2.909230
    6  H  3  S   -0.090913   0.145633   0.124625  -0.000000  -0.005858

                      6

    6  H  3  S    2.909230
 SYMMETRIZED FOCK OPERATOR

                      1          2          3          4          5

    1  O  1  S    2.898572
    2  O  1  X    0.000000   3.120411
    3  O  1  Y   -0.101855  -0.000000   3.079557
    4  O  1  Z    0.000000  -0.000000  -0.000000   2.944098
    5  H  2  S   -0.090913  -0.145633   0.124625  -0.000000   2.909230
    6  H  3  S   -0.090913   0.145633   0.124625  -0.000000  -0.005858

                      6

    6  H  3  S    2.909230

 EHF1 =      -5.945974743927 EHF2 =     -28.863636403307 EHF =     -17.404805573617
 TOTAL FOCK OPERATOR

                      1          2          3          4          5

    1  O  1  S   -1.085188
    2  O  1  X    0.000000  -0.309952
    3  O  1  Y   -0.050554  -0.000000  -0.336180
    4  O  1  Z    0.000000  -0.000000  -0.000000  -0.449645
    5  H  2  S   -0.360239  -0.286325   0.233659  -0.000000  -0.225614
    6  H  3  S   -0.360239   0.286325   0.233659  -0.000000  -0.087799

                      6

    6  H  3  S   -0.225614
 LAGRANGE MULTIPLIER MATRIX

             1           2           3           4

    1   -2.6989650  -0.0000000  -0.0010111   0.0000000
    2   -0.0000000  -1.2752510  -0.0000000  -0.0000000
    3   -0.0010111   0.0000000  -1.0724689   0.0000000
    4    0.0000000  -0.0000000   0.0000000  -0.8992898
    5   -0.0076612   0.0000000   0.0012038   0.0000000
    6   -0.0000000   0.0275725  -0.0000000  -0.0000000
 NEW ORBITALS

                      1          2          3          4          5

                   -1.3495    -0.6379    -0.5362    -0.4496     0.1509

    1  O  1  S   -0.878006   0.000000   0.340033  -0.000000   0.336872
    2  O  1  X    0.000000   0.777145  -0.000000  -0.000000  -0.000000
    3  O  1  Y    0.108242   0.000000   0.826616   0.000000  -0.552258
    4  O  1  Z   -0.000000   0.000000   0.000000   1.000000   0.000000
    5  H  2  S   -0.329688   0.444997  -0.317083   0.000000  -0.539226
    6  H  3  S   -0.329688  -0.444997  -0.317083   0.000000  -0.539226

                      6

                    0.1901

    1  O  1  S    0.000000
    2  O  1  X    0.629321
    3  O  1  Y   -0.000000
    4  O  1  Z   -0.000000
    5  H  2  S   -0.549525
    6  H  3  S    0.549525
 NEW DENSITY MATRIX

                      1          2          3          4          5

    1  O  1  S    1.773035
    2  O  1  X   -0.000000   1.207909
    3  O  1  Y    0.372080   0.000000   1.390022
    4  O  1  Z   -0.000000  -0.000000   0.000000   2.000000
    5  H  2  S    0.363299   0.691655  -0.595584   0.000000   0.814517
    6  H  3  S    0.363299  -0.691655  -0.595584   0.000000   0.022426

                      6

    6  H  3  S    0.814517
 *** END OF DEBUG OUTPUT FOR ITERATION                     3
   3  2  0      -11.9388838032    -0.0057949174   0.032459383   0.000000000

                TWO-ELECTRON PART OF FOCK MATRIX (MPCG)

                      1          2          3          4          5

    1  O  1  S    2.898684
    2  O  1  X    0.000000   3.124969
    3  O  1  Y   -0.102220  -0.000000   3.077806
    4  O  1  Z    0.000000   0.000000  -0.000000   2.941823
    5  H  2  S   -0.090551  -0.146643   0.124848  -0.000000   2.906012
    6  H  3  S   -0.090551   0.146643   0.124848  -0.000000  -0.003295

                      6

    6  H  3  S    2.906012
 *** START OF DEBUG OUTPUT FOR ITERATION                     4
 SKELETON FOCK MATRIX

                      1          2          3          4          5

    1  O  1  S    2.898684
    2  O  1  X    0.000000   3.124969
    3  O  1  Y   -0.102220  -0.000000   3.077806
    4  O  1  Z    0.000000   0.000000  -0.000000   2.941823
    5  H  2  S   -0.090551  -0.146643   0.124848  -0.000000   2.906012
    6  H  3  S   -0.090551   0.146643   0.124848  -0.000000  -0.003295

                      6

    6  H  3  S    2.906012
 SYMMETRIZED FOCK OPERATOR

                      1          2          3          4          5

    1  O  1  S    2.898684
    2  O  1  X    0.000000   3.124969
    3  O  1  Y   -0.102220  -0.000000   3.077806
    4  O  1  Z    0.000000   0.000000  -0.000000   2.941823
    5  H  2  S   -0.090551  -0.146643   0.124848  -0.000000   2.906012
    6  H  3  S   -0.090551   0.146643   0.124848  -0.000000  -0.003295

                      6

    6  H  3  S    2.906012

 EHF1 =      -5.955932058693 EHF2 =     -28.854994606169 EHF =     -17.405463332431
 TOTAL FOCK OPERATOR

                      1          2          3          4          5

    1  O  1  S   -1.085076
    2  O  1  X    0.000000  -0.305395
    3  O  1  Y   -0.050918  -0.000000  -0.337931
    4  O  1  Z    0.000000   0.000000  -0.000000  -0.451920
    5  H  2  S   -0.359877  -0.287335   0.233881  -0.000000  -0.228833
    6  H  3  S   -0.359877   0.287335   0.233881  -0.000000  -0.085235

                      6

    6  H  3  S   -0.228833
 LAGRANGE MULTIPLIER MATRIX

             1           2           3           4

    1   -2.6982254   0.0000000  -0.0001845  -0.0000000
    2    0.0000000  -1.2775793  -0.0000000   0.0000000
    3   -0.0001845  -0.0000000  -1.0762880   0.0000000
    4   -0.0000000   0.0000000   0.0000000  -0.9038394
    5   -0.0000689  -0.0000000   0.0004499  -0.0000000
    6    0.0000000   0.0107078  -0.0000000   0.0000000
 NEW ORBITALS

                      1          2          3          4          5

                   -1.3491    -0.6388    -0.5381    -0.4519     0.1502

    1  O  1  S   -0.877960   0.000000   0.340023  -0.000000   0.337003
    2  O  1  X   -0.000000   0.773063  -0.000000   0.000000  -0.000000
    3  O  1  Y    0.108323   0.000000   0.826784   0.000000  -0.551991
    4  O  1  Z   -0.000000  -0.000000  -0.000000   1.000000   0.000000
    5  H  2  S   -0.329737   0.448539  -0.316869   0.000000  -0.539322
    6  H  3  S   -0.329737  -0.448539  -0.316869   0.000000  -0.539322

                      6

                    0.1898

    1  O  1  S    0.000000
    2  O  1  X    0.634329
    3  O  1  Y   -0.000000
    4  O  1  Z   -0.000000
    5  H  2  S   -0.546638
    6  H  3  S    0.546638
 NEW DENSITY MATRIX

                      1          2          3          4          5

    1  O  1  S    1.772858
    2  O  1  X   -0.000000   1.195252
    3  O  1  Y    0.372045   0.000000   1.390613
    4  O  1  Z   -0.000000   0.000000   0.000000   2.000000
    5  H  2  S    0.363506   0.693497  -0.595401   0.000000   0.820638
    6  H  3  S    0.363506  -0.693497  -0.595401   0.000000   0.015891

                      6

    6  H  3  S    0.820638
 *** END OF DEBUG OUTPUT FOR ITERATION                     4
   4  3  0      -11.9395415620    -0.0006577588   0.012656871   0.000000000

                TWO-ELECTRON PART OF FOCK MATRIX (MPCG)

                      1          2          3          4          5

    1  O  1  S    2.898872
    2  O  1  X    0.000000   3.126818
    3  O  1  Y   -0.102528  -0.000000   3.077001
    4  O  1  Z    0.000000  -0.000000  -0.000000   2.940998
    5  H  2  S   -0.090620  -0.147009   0.124828  -0.000000   2.904643
    6  H  3  S   -0.090620   0.147009   0.124828  -0.000000  -0.002335

                      6

    6  H  3  S    2.904643
 *** START OF DEBUG OUTPUT FOR ITERATION                     5
 SKELETON FOCK MATRIX

                      1          2          3          4          5

    1  O  1  S    2.898872
    2  O  1  X    0.000000   3.126818
    3  O  1  Y   -0.102528  -0.000000   3.077001
    4  O  1  Z    0.000000  -0.000000  -0.000000   2.940998
    5  H  2  S   -0.090620  -0.147009   0.124828  -0.000000   2.904643
    6  H  3  S   -0.090620   0.147009   0.124828  -0.000000  -0.002335

                      6

    6  H  3  S    2.904643
 SYMMETRIZED FOCK OPERATOR

                      1          2          3          4          5

    1  O  1  S    2.898872
    2  O  1  X    0.000000   3.126818
    3  O  1  Y   -0.102528  -0.000000   3.077001
    4  O  1  Z    0.000000  -0.000000  -0.000000   2.940998
    5  H  2  S   -0.090620  -0.147009   0.124828  -0.000000   2.904643
    6  H  3  S   -0.090620   0.147009   0.124828  -0.000000  -0.002335

                      6

    6  H  3  S    2.904643

 EHF1 =      -5.959739437750 EHF2 =     -28.851381854135 EHF =     -17.405560645943
 TOTAL FOCK OPERATOR

                      1          2          3          4          5

    1  O  1  S   -1.084888
    2  O  1  X    0.000000  -0.303546
    3  O  1  Y   -0.051227  -0.000000  -0.338736
    4  O  1  Z    0.000000  -0.000000  -0.000000  -0.452745
    5  H  2  S   -0.359946  -0.287701   0.233861  -0.000000  -0.230201
    6  H  3  S   -0.359946   0.287701   0.233861  -0.000000  -0.084275

                      6

    6  H  3  S   -0.230201
 LAGRANGE MULTIPLIER MATRIX

             1           2           3           4

    1   -2.6981689  -0.0000000  -0.0000235   0.0000000
    2   -0.0000000  -1.2783259  -0.0000000  -0.0000000
    3   -0.0000235  -0.0000000  -1.0777552  -0.0000000
    4    0.0000000  -0.0000000  -0.0000000  -0.9054893
    5   -0.0007359  -0.0000000   0.0005434  -0.0000000
    6   -0.0000000   0.0042992  -0.0000000  -0.0000000
 NEW ORBITALS

                      1          2          3          4          5

                   -1.3491    -0.6394    -0.5394    -0.4533     0.1496

    1  O  1  S   -0.877773   0.000000   0.339755  -0.000000   0.337758
    2  O  1  X    0.000000   0.770268  -0.000000  -0.000000   0.000000
    3  O  1  Y    0.108028   0.000000   0.827232  -0.000000  -0.551377
    4  O  1  Z   -0.000000   0.000000   0.000000   1.000000   0.000000
    5  H  2  S   -0.330033   0.450936  -0.316428   0.000000  -0.539399
    6  H  3  S   -0.330033  -0.450936  -0.316428   0.000000  -0.539399

                      6

                    0.1896

    1  O  1  S   -0.000000
    2  O  1  X    0.637720
    3  O  1  Y    0.000000
    4  O  1  Z   -0.000000
    5  H  2  S   -0.544662
    6  H  3  S    0.544662
 NEW DENSITY MATRIX

                      1          2          3          4          5

    1  O  1  S    1.771839
    2  O  1  X    0.000000   1.186626
    3  O  1  Y    0.372464   0.000000   1.391966
    4  O  1  Z   -0.000000  -0.000000   0.000000   2.000000
    5  H  2  S    0.364373   0.694684  -0.594825   0.000000   0.824785
    6  H  3  S    0.364373  -0.694684  -0.594825   0.000000   0.011411

                      6

    6  H  3  S    0.824785
 *** END OF DEBUG OUTPUT FOR ITERATION                     5
   5  0  0      -11.9396388755    -0.0000973135   0.008626682   0.000000000

                TWO-ELECTRON PART OF FOCK MATRIX (MPCG)

                      1          2          3          4          5

    1  O  1  S    2.899080
    2  O  1  X   -0.000000   3.128139
    3  O  1  Y   -0.102809  -0.000000   3.076330
    4  O  1  Z    0.000000   0.000000  -0.000000   2.940498
    5  H  2  S   -0.090803  -0.147253   0.124736  -0.000000   2.903687
    6  H  3  S   -0.090803   0.147253   0.124736  -0.000000  -0.001676

                      6

    6  H  3  S    2.903687
 *** START OF DEBUG OUTPUT FOR ITERATION                     6
 SKELETON FOCK MATRIX

                      1          2          3          4          5

    1  O  1  S    2.899080
    2  O  1  X   -0.000000   3.128139
    3  O  1  Y   -0.102809  -0.000000   3.076330
    4  O  1  Z    0.000000   0.000000  -0.000000   2.940498
    5  H  2  S   -0.090803  -0.147253   0.124736  -0.000000   2.903687
    6  H  3  S   -0.090803   0.147253   0.124736  -0.000000  -0.001676

                      6

    6  H  3  S    2.903687
 SYMMETRIZED FOCK OPERATOR

                      1          2          3          4          5

    1  O  1  S    2.899080
    2  O  1  X   -0.000000   3.128139
    3  O  1  Y   -0.102809  -0.000000   3.076330
    4  O  1  Z    0.000000   0.000000  -0.000000   2.940498
    5  H  2  S   -0.090803  -0.147253   0.124736  -0.000000   2.903687
    6  H  3  S   -0.090803   0.147253   0.124736  -0.000000  -0.001676

                      6

    6  H  3  S    2.903687

 EHF1 =      -5.962240684595 EHF2 =     -28.848920506990 EHF =     -17.405580595793
 TOTAL FOCK OPERATOR

                      1          2          3          4          5

    1  O  1  S   -1.084680
    2  O  1  X   -0.000000  -0.302224
    3  O  1  Y   -0.051507  -0.000000  -0.339407
    4  O  1  Z    0.000000   0.000000  -0.000000  -0.453245
    5  H  2  S   -0.360129  -0.287945   0.233769  -0.000000  -0.231157
    6  H  3  S   -0.360129   0.287945   0.233769  -0.000000  -0.083617

                      6

    6  H  3  S   -0.231157
 LAGRANGE MULTIPLIER MATRIX

             1           2           3           4

    1   -2.6982846   0.0000000  -0.0000017  -0.0000000
    2    0.0000000  -1.2787554  -0.0000000   0.0000000
    3   -0.0000017  -0.0000000  -1.0787107   0.0000000
    4   -0.0000000   0.0000000   0.0000000  -0.9064899
    5    0.0000422   0.0000000   0.0001408  -0.0000000
    6    0.0000000   0.0000276  -0.0000000   0.0000000
 NEW ORBITALS

                      1          2          3          4          5

                   -1.3491    -0.6394    -0.5394    -0.4532     0.1496

    1  O  1  S   -0.877778   0.000000   0.339721  -0.000000   0.337781
    2  O  1  X    0.000000   0.770257  -0.000000   0.000000  -0.000000
    3  O  1  Y    0.108036   0.000000   0.827288  -0.000000  -0.551291
    4  O  1  Z   -0.000000  -0.000000   0.000000   1.000000   0.000000
    5  H  2  S   -0.330026   0.450945  -0.316373   0.000000  -0.539436
    6  H  3  S   -0.330026  -0.450945  -0.316373   0.000000  -0.539436

                      6

                    0.1896

    1  O  1  S   -0.000000
    2  O  1  X    0.637733
    3  O  1  Y    0.000000
    4  O  1  Z   -0.000000
    5  H  2  S   -0.544654
    6  H  3  S    0.544654
 NEW DENSITY MATRIX

                      1          2          3          4          5

    1  O  1  S    1.771809
    2  O  1  X   -0.000000   1.186593
    3  O  1  Y    0.372431  -0.000000   1.392156
    4  O  1  Z   -0.000000   0.000000   0.000000   2.000000
    5  H  2  S    0.364422   0.694688  -0.594773   0.000000   0.824721
    6  H  3  S    0.364422  -0.694688  -0.594773   0.000000   0.011314

                      6

    6  H  3  S    0.824721
 *** END OF DEBUG OUTPUT FOR ITERATION                     6
   6  1  0      -11.9396588254    -0.0000199499   0.000189811   0.000000000

                TWO-ELECTRON PART OF FOCK MATRIX (MPCG)

                      1          2          3          4          5

    1  O  1  S    2.899081
    2  O  1  X    0.000000   3.128154
    3  O  1  Y   -0.102800   0.000000   3.076302
    4  O  1  Z    0.000000  -0.000000  -0.000000   2.940508
    5  H  2  S   -0.090812  -0.147254   0.124726  -0.000000   2.903702
    6  H  3  S   -0.090812   0.147254   0.124726  -0.000000  -0.001662

                      6

    6  H  3  S    2.903702
 *** START OF DEBUG OUTPUT FOR ITERATION                     7
 SKELETON FOCK MATRIX

                      1          2          3          4          5

    1  O  1  S    2.899081
    2  O  1  X    0.000000   3.128154
    3  O  1  Y   -0.102800   0.000000   3.076302
    4  O  1  Z    0.000000  -0.000000  -0.000000   2.940508
    5  H  2  S   -0.090812  -0.147254   0.124726  -0.000000   2.903702
    6  H  3  S   -0.090812   0.147254   0.124726  -0.000000  -0.001662

                      6

    6  H  3  S    2.903702
 SYMMETRIZED FOCK OPERATOR

                      1          2          3          4          5

    1  O  1  S    2.899081
    2  O  1  X    0.000000   3.128154
    3  O  1  Y   -0.102800   0.000000   3.076302
    4  O  1  Z    0.000000  -0.000000  -0.000000   2.940508
    5  H  2  S   -0.090812  -0.147254   0.124726  -0.000000   2.903702
    6  H  3  S   -0.090812   0.147254   0.124726  -0.000000  -0.001662

                      6

    6  H  3  S    2.903702

 EHF1 =      -5.962202368067 EHF2 =     -28.848958869045 EHF =     -17.405580618556
 TOTAL FOCK OPERATOR

                      1          2          3          4          5

    1  O  1  S   -1.084679
    2  O  1  X    0.000000  -0.302210
    3  O  1  Y   -0.051499   0.000000  -0.339435
    4  O  1  Z    0.000000  -0.000000  -0.000000  -0.453234
    5  H  2  S   -0.360138  -0.287946   0.233760  -0.000000  -0.231142
    6  H  3  S   -0.360138   0.287946   0.233760  -0.000000  -0.083603

                      6

    6  H  3  S   -0.231142
 LAGRANGE MULTIPLIER MATRIX

             1           2           3           4

    1   -2.6982929  -0.0000000   0.0000001   0.0000000
    2   -0.0000000  -1.2787413   0.0000000  -0.0000000
    3    0.0000001   0.0000000  -1.0786994  -0.0000000
    4    0.0000000  -0.0000000  -0.0000000  -0.9064687
    5    0.0000144  -0.0000000   0.0000672  -0.0000000
    6   -0.0000000   0.0000147   0.0000000   0.0000000
 NEW ORBITALS

                      1          2          3          4          5

                   -1.3491    -0.6394    -0.5393    -0.4532     0.1496

    1  O  1  S   -0.877779   0.000000   0.339705  -0.000000   0.337793
    2  O  1  X   -0.000000   0.770252  -0.000000  -0.000000  -0.000000
    3  O  1  Y    0.108039   0.000000   0.827315  -0.000000  -0.551250
    4  O  1  Z    0.000000   0.000000   0.000000   1.000000   0.000000
    5  H  2  S   -0.330023   0.450950  -0.316347   0.000000  -0.539453
    6  H  3  S   -0.330023  -0.450950  -0.316347   0.000000  -0.539453

                      6

                    0.1896

    1  O  1  S    0.000000
    2  O  1  X    0.637740
    3  O  1  Y   -0.000000
    4  O  1  Z    0.000000
    5  H  2  S   -0.544650
    6  H  3  S    0.544650
 NEW DENSITY MATRIX

                      1          2          3          4          5

    1  O  1  S    1.771792
    2  O  1  X    0.000000   1.186576
    3  O  1  Y    0.372417  -0.000000   1.392246
    4  O  1  Z   -0.000000   0.000000  -0.000000   2.000000
    5  H  2  S    0.364447   0.694690  -0.594747   0.000000   0.824693
    6  H  3  S    0.364447  -0.694690  -0.594747   0.000000   0.011269

                      6

    6  H  3  S    0.824693
 *** END OF DEBUG OUTPUT FOR ITERATION                     7
   7  2  0      -11.9396588481    -0.0000000228   0.000090133   0.000000000

                TWO-ELECTRON PART OF FOCK MATRIX (MPCG)

                      1          2          3          4          5

    1  O  1  S    2.899081
    2  O  1  X   -0.000000   3.128161
    3  O  1  Y   -0.102796   0.000000   3.076289
    4  O  1  Z    0.000000  -0.000000   0.000000   2.940513
    5  H  2  S   -0.090816  -0.147255   0.124722  -0.000000   2.903708
    6  H  3  S   -0.090816   0.147255   0.124722  -0.000000  -0.001656

                      6

    6  H  3  S    2.903708
 *** START OF DEBUG OUTPUT FOR ITERATION                     8
 SKELETON FOCK MATRIX

                      1          2          3          4          5

    1  O  1  S    2.899081
    2  O  1  X   -0.000000   3.128161
    3  O  1  Y   -0.102796   0.000000   3.076289
    4  O  1  Z    0.000000  -0.000000   0.000000   2.940513
    5  H  2  S   -0.090816  -0.147255   0.124722  -0.000000   2.903708
    6  H  3  S   -0.090816   0.147255   0.124722  -0.000000  -0.001656

                      6

    6  H  3  S    2.903708
 SYMMETRIZED FOCK OPERATOR

                      1          2          3          4          5

    1  O  1  S    2.899081
    2  O  1  X   -0.000000   3.128161
    3  O  1  Y   -0.102796   0.000000   3.076289
    4  O  1  Z    0.000000  -0.000000   0.000000   2.940513
    5  H  2  S   -0.090816  -0.147255   0.124722  -0.000000   2.903708
    6  H  3  S   -0.090816   0.147255   0.124722  -0.000000  -0.001656

                      6

    6  H  3  S    2.903708

 EHF1 =      -5.962185370493 EHF2 =     -28.848975876889 EHF =     -17.405580623691
 TOTAL FOCK OPERATOR

                      1          2          3          4          5

    1  O  1  S   -1.084679
    2  O  1  X   -0.000000  -0.302202
    3  O  1  Y   -0.051495   0.000000  -0.339448
    4  O  1  Z    0.000000  -0.000000   0.000000  -0.453229
    5  H  2  S   -0.360142  -0.287947   0.233755  -0.000000  -0.231136
    6  H  3  S   -0.360142   0.287947   0.233755  -0.000000  -0.083596

                      6

    6  H  3  S   -0.231136
 LAGRANGE MULTIPLIER MATRIX

             1           2           3           4

    1   -2.6982972  -0.0000000   0.0000001  -0.0000000
    2   -0.0000000  -1.2787349   0.0000000  -0.0000000
    3    0.0000001   0.0000000  -1.0786943   0.0000000
    4   -0.0000000  -0.0000000   0.0000000  -0.9064588
    5    0.0000053   0.0000000   0.0000320  -0.0000000
    6    0.0000000   0.0000078  -0.0000000  -0.0000000
 NEW ORBITALS

                      1          2          3          4          5

                   -1.3491    -0.6394    -0.5393    -0.4532     0.1496

    1  O  1  S   -0.877780  -0.000000   0.339697   0.000000   0.337799
    2  O  1  X    0.000000   0.770249   0.000000  -0.000000   0.000000
    3  O  1  Y    0.108040  -0.000000   0.827328   0.000000  -0.551231
    4  O  1  Z   -0.000000   0.000000  -0.000000   1.000000   0.000000
    5  H  2  S   -0.330022   0.450953  -0.316334  -0.000000  -0.539461
    6  H  3  S   -0.330022  -0.450953  -0.316334   0.000000  -0.539461

                      6

                    0.1896

    1  O  1  S   -0.000000
    2  O  1  X    0.637744
    3  O  1  Y    0.000000
    4  O  1  Z   -0.000000
    5  H  2  S   -0.544648
    6  H  3  S    0.544648
 NEW DENSITY MATRIX

                      1          2          3          4          5

    1  O  1  S    1.771783
    2  O  1  X    0.000000   1.186566
    3  O  1  Y    0.372411  -0.000000   1.392289
    4  O  1  Z   -0.000000   0.000000  -0.000000   2.000000
    5  H  2  S    0.364459   0.694692  -0.594735   0.000000   0.824681
    6  H  3  S    0.364459  -0.694692  -0.594735   0.000000   0.011247

                      6

    6  H  3  S    0.824681
 *** END OF DEBUG OUTPUT FOR ITERATION                     8
   8  3  0      -11.9396588533    -0.0000000051   0.000042815   0.000000000

                TWO-ELECTRON PART OF FOCK MATRIX (MPCG)

                      1          2          3          4          5

    1  O  1  S    2.899082
    2  O  1  X   -0.000000   3.128165
    3  O  1  Y   -0.102795   0.000000   3.076283
    4  O  1  Z    0.000000  -0.000000   0.000000   2.940516
    5  H  2  S   -0.090819  -0.147255   0.124720  -0.000000   2.903711
    6  H  3  S   -0.090819   0.147255   0.124720  -0.000000  -0.001652

                      6

    6  H  3  S    2.903711
 *** START OF DEBUG OUTPUT FOR ITERATION                     9
 SKELETON FOCK MATRIX

                      1          2          3          4          5

    1  O  1  S    2.899082
    2  O  1  X   -0.000000   3.128165
    3  O  1  Y   -0.102795   0.000000   3.076283
    4  O  1  Z    0.000000  -0.000000   0.000000   2.940516
    5  H  2  S   -0.090819  -0.147255   0.124720  -0.000000   2.903711
    6  H  3  S   -0.090819   0.147255   0.124720  -0.000000  -0.001652

                      6

    6  H  3  S    2.903711
 SYMMETRIZED FOCK OPERATOR

                      1          2          3          4          5

    1  O  1  S    2.899082
    2  O  1  X   -0.000000   3.128165
    3  O  1  Y   -0.102795   0.000000   3.076283
    4  O  1  Z    0.000000  -0.000000   0.000000   2.940516
    5  H  2  S   -0.090819  -0.147255   0.124720  -0.000000   2.903711
    6  H  3  S   -0.090819   0.147255   0.124720  -0.000000  -0.001652

                      6

    6  H  3  S    2.903711

 EHF1 =      -5.962177769731 EHF2 =     -28.848983479988 EHF =     -17.405580624859
 TOTAL FOCK OPERATOR

                      1          2          3          4          5

    1  O  1  S   -1.084678
    2  O  1  X   -0.000000  -0.302199
    3  O  1  Y   -0.051493   0.000000  -0.339454
    4  O  1  Z    0.000000  -0.000000   0.000000  -0.453227
    5  H  2  S   -0.360145  -0.287947   0.233753  -0.000000  -0.231133
    6  H  3  S   -0.360145   0.287947   0.233753  -0.000000  -0.083593

                      6

    6  H  3  S   -0.231133
 LAGRANGE MULTIPLIER MATRIX

             1           2           3           4

    1   -2.6982994   0.0000000   0.0000001  -0.0000000
    2    0.0000000  -1.2787320  -0.0000000   0.0000000
    3    0.0000001  -0.0000000  -1.0786921   0.0000000
    4   -0.0000000   0.0000000   0.0000000  -0.9064543
    5    0.0000021   0.0000000   0.0000153  -0.0000000
    6   -0.0000000   0.0000041  -0.0000000   0.0000000
 NEW ORBITALS

                      1          2          3          4          5

                   -1.3491    -0.6394    -0.5393    -0.4532     0.1496

    1  O  1  S   -0.877780  -0.000000   0.339693   0.000000   0.337802
    2  O  1  X   -0.000000   0.770247  -0.000000   0.000000   0.000000
    3  O  1  Y    0.108040   0.000000   0.827334   0.000000  -0.551222
    4  O  1  Z   -0.000000   0.000000  -0.000000   1.000000   0.000000
    5  H  2  S   -0.330022   0.450954  -0.316328  -0.000000  -0.539465
    6  H  3  S   -0.330022  -0.450954  -0.316328   0.000000  -0.539465

                      6

                    0.1896

    1  O  1  S   -0.000000
    2  O  1  X    0.637745
    3  O  1  Y    0.000000
    4  O  1  Z   -0.000000
    5  H  2  S   -0.544647
    6  H  3  S    0.544647
 NEW DENSITY MATRIX

                      1          2          3          4          5

    1  O  1  S    1.771779
    2  O  1  X   -0.000000   1.186562
    3  O  1  Y    0.372408  -0.000000   1.392309
    4  O  1  Z    0.000000   0.000000  -0.000000   2.000000
    5  H  2  S    0.364465   0.694692  -0.594729   0.000000   0.824675
    6  H  3  S    0.364465  -0.694692  -0.594729   0.000000   0.011237

                      6

    6  H  3  S    0.824675
 *** END OF DEBUG OUTPUT FOR ITERATION                     9
   9  4  0      -11.9396588544    -0.0000000012   0.000020358   0.000000000

                TWO-ELECTRON PART OF FOCK MATRIX (MPCG)

                      1          2          3          4          5

    1  O  1  S    2.899082
    2  O  1  X   -0.000000   3.128167
    3  O  1  Y   -0.102794   0.000000   3.076280
    4  O  1  Z   -0.000000  -0.000000   0.000000   2.940517
    5  H  2  S   -0.090820  -0.147256   0.124719  -0.000000   2.903712
    6  H  3  S   -0.090820   0.147256   0.124719  -0.000000  -0.001651

                      6

    6  H  3  S    2.903712
 *** START OF DEBUG OUTPUT FOR ITERATION                    10
 SKELETON FOCK MATRIX

                      1          2          3          4          5

    1  O  1  S    2.899082
    2  O  1  X   -0.000000   3.128167
    3  O  1  Y   -0.102794   0.000000   3.076280
    4  O  1  Z   -0.000000  -0.000000   0.000000   2.940517
    5  H  2  S   -0.090820  -0.147256   0.124719  -0.000000   2.903712
    6  H  3  S   -0.090820   0.147256   0.124719  -0.000000  -0.001651

                      6

    6  H  3  S    2.903712
 SYMMETRIZED FOCK OPERATOR

                      1          2          3          4          5

    1  O  1  S    2.899082
    2  O  1  X   -0.000000   3.128167
    3  O  1  Y   -0.102794   0.000000   3.076280
    4  O  1  Z   -0.000000  -0.000000   0.000000   2.940517
    5  H  2  S   -0.090820  -0.147256   0.124719  -0.000000   2.903712
    6  H  3  S   -0.090820   0.147256   0.124719  -0.000000  -0.001651

                      6

    6  H  3  S    2.903712

 EHF1 =      -5.962174346047 EHF2 =     -28.848986904205 EHF =     -17.405580625126
 TOTAL FOCK OPERATOR

                      1          2          3          4          5

    1  O  1  S   -1.084678
    2  O  1  X   -0.000000  -0.302197
    3  O  1  Y   -0.051493   0.000000  -0.339457
    4  O  1  Z   -0.000000  -0.000000   0.000000  -0.453226
    5  H  2  S   -0.360146  -0.287948   0.233752  -0.000000  -0.231132
    6  H  3  S   -0.360146   0.287948   0.233752  -0.000000  -0.083591

                      6

    6  H  3  S   -0.231132
 LAGRANGE MULTIPLIER MATRIX

             1           2           3           4

    1   -2.6983004  -0.0000000   0.0000000   0.0000000
    2   -0.0000000  -1.2787306  -0.0000000  -0.0000000
    3    0.0000000  -0.0000000  -1.0786911   0.0000000
    4    0.0000000  -0.0000000   0.0000000  -0.9064522
    5    0.0000009  -0.0000000   0.0000073  -0.0000000
    6    0.0000000   0.0000021   0.0000000  -0.0000000
 NEW ORBITALS

                      1          2          3          4          5

                   -1.3492    -0.6394    -0.5393    -0.4532     0.1496

    1  O  1  S   -0.877780   0.000000   0.339691   0.000000   0.337804
    2  O  1  X   -0.000000   0.770246  -0.000000  -0.000000   0.000000
    3  O  1  Y    0.108040   0.000000   0.827337   0.000000  -0.551217
    4  O  1  Z    0.000000   0.000000  -0.000000   1.000000   0.000000
    5  H  2  S   -0.330022   0.450955  -0.316325  -0.000000  -0.539466
    6  H  3  S   -0.330022  -0.450955  -0.316325   0.000000  -0.539466

                      6

                    0.1896

    1  O  1  S   -0.000000
    2  O  1  X    0.637746
    3  O  1  Y    0.000000
    4  O  1  Z   -0.000000
    5  H  2  S   -0.544646
    6  H  3  S    0.544646
 NEW DENSITY MATRIX

                      1          2          3          4          5

    1  O  1  S    1.771777
    2  O  1  X    0.000000   1.186559
    3  O  1  Y    0.372407  -0.000000   1.392319
    4  O  1  Z   -0.000000  -0.000000  -0.000000   2.000000
    5  H  2  S    0.364468   0.694693  -0.594726  -0.000000   0.824673
    6  H  3  S    0.364468  -0.694693  -0.594726   0.000000   0.011232

                      6

    6  H  3  S    0.824673
 *** END OF DEBUG OUTPUT FOR ITERATION                    10
  10  5  0      -11.9396588547    -0.0000000003   0.000009691   0.000000000

                TWO-ELECTRON PART OF FOCK MATRIX (MPCG)

                      1          2          3          4          5

    1  O  1  S    2.899082
    2  O  1  X   -0.000000   3.128168
    3  O  1  Y   -0.102794   0.000000   3.076278
    4  O  1  Z    0.000000   0.000000   0.000000   2.940517
    5  H  2  S   -0.090820  -0.147256   0.124718   0.000000   2.903713
    6  H  3  S   -0.090820   0.147256   0.124718  -0.000000  -0.001650

                      6

    6  H  3  S    2.903713
 *** START OF DEBUG OUTPUT FOR ITERATION                    11
 SKELETON FOCK MATRIX

                      1          2          3          4          5

    1  O  1  S    2.899082
    2  O  1  X   -0.000000   3.128168
    3  O  1  Y   -0.102794   0.000000   3.076278
    4  O  1  Z    0.000000   0.000000   0.000000   2.940517
    5  H  2  S   -0.090820  -0.147256   0.124718   0.000000   2.903713
    6  H  3  S   -0.090820   0.147256   0.124718  -0.000000  -0.001650

                      6

    6  H  3  S    2.903713
 SYMMETRIZED FOCK OPERATOR

                      1          2          3          4          5

    1  O  1  S    2.899082
    2  O  1  X   -0.000000   3.128168
    3  O  1  Y   -0.102794   0.000000   3.076278
    4  O  1  Z    0.000000   0.000000   0.000000   2.940517
    5  H  2  S   -0.090820  -0.147256   0.124718   0.000000   2.903713
    6  H  3  S   -0.090820   0.147256   0.124718  -0.000000  -0.001650

                      6

    6  H  3  S    2.903713

 EHF1 =      -5.962172793439 EHF2 =     -28.848988456936 EHF =     -17.405580625187
 TOTAL FOCK OPERATOR

                      1          2          3          4          5

    1  O  1  S   -1.084678
    2  O  1  X   -0.000000  -0.302196
    3  O  1  Y   -0.051492   0.000000  -0.339459
    4  O  1  Z    0.000000   0.000000   0.000000  -0.453226
    5  H  2  S   -0.360146  -0.287948   0.233752   0.000000  -0.231132
    6  H  3  S   -0.360146   0.287948   0.233752  -0.000000  -0.083591

                      6

    6  H  3  S   -0.231132
 LAGRANGE MULTIPLIER MATRIX

             1           2           3           4

    1   -2.6983009   0.0000000   0.0000000  -0.0000000
    2    0.0000000  -1.2787300  -0.0000000   0.0000000
    3    0.0000000  -0.0000000  -1.0786906   0.0000000
    4   -0.0000000   0.0000000   0.0000000  -0.9064513
    5    0.0000004  -0.0000000   0.0000035  -0.0000000
    6    0.0000000   0.0000011   0.0000000  -0.0000000
 NEW ORBITALS

                      1          2          3          4          5

                   -1.3492    -0.6394    -0.5393    -0.4532     0.1496

    1  O  1  S   -0.877780   0.000000   0.339690   0.000000   0.337805
    2  O  1  X   -0.000000   0.770246  -0.000000   0.000000   0.000000
    3  O  1  Y    0.108040   0.000000   0.827338   0.000000  -0.551215
    4  O  1  Z    0.000000  -0.000000  -0.000000   1.000000  -0.000000
    5  H  2  S   -0.330022   0.450955  -0.316324   0.000000  -0.539467
    6  H  3  S   -0.330022  -0.450955  -0.316324  -0.000000  -0.539467

                      6

                    0.1896

    1  O  1  S   -0.000000
    2  O  1  X    0.637747
    3  O  1  Y    0.000000
    4  O  1  Z   -0.000000
    5  H  2  S   -0.544646
    6  H  3  S    0.544646
 NEW DENSITY MATRIX

                      1          2          3          4          5

    1  O  1  S    1.771776
    2  O  1  X    0.000000   1.186558
    3  O  1  Y    0.372406   0.000000   1.392323
    4  O  1  Z   -0.000000  -0.000000  -0.000000   2.000000
    5  H  2  S    0.364469   0.694693  -0.594725  -0.000000   0.824671
    6  H  3  S    0.364469  -0.694693  -0.594725   0.000000   0.011229

                      6

    6  H  3  S    0.824671
 *** END OF DEBUG OUTPUT FOR ITERATION                    11
  11  6  0      -11.9396588548    -0.0000000001   0.000004618   0.000000000

          -----------------
          DENSITY CONVERGED
          -----------------
     TIME TO FORM FOCK OPERATORS=       0.0 SECONDS (       0.0 SEC/ITER)
     TIME TO SOLVE SCF EQUATIONS=       0.0 SECONDS (       0.0 SEC/ITER)

 FINAL R-PM3 ENERGY IS      -11.9396588548 AFTER  11 ITERATIONS

 HEAT OF FORMATION IS      -53.21783 KCAL/MOL

          ------------
          EIGENVECTORS
          ------------

                      1          2          3          4          5
                   -1.3492    -0.6394    -0.5393    -0.4532     0.1496
                     A          A          A          A          A   
    1  O  1  S    0.877780   0.000000   0.339690   0.000000  -0.337805
    2  O  1  X    0.000000   0.770246  -0.000000   0.000000  -0.000000
    3  O  1  Y   -0.108040   0.000000   0.827338   0.000000   0.551215
    4  O  1  Z   -0.000000  -0.000000  -0.000000   1.000000   0.000000
    5  H  2  S    0.330022   0.450955  -0.316324   0.000000   0.539467
    6  H  3  S    0.330022  -0.450955  -0.316324  -0.000000   0.539467

                      6
                    0.1896
                     A   
    1  O  1  S   -0.000000
    2  O  1  X    0.637747
    3  O  1  Y    0.000000
    4  O  1  Z   -0.000000
    5  H  2  S   -0.544646
    6  H  3  S    0.544646
 ...... END OF RHF CALCULATION ......
 STEP CPU TIME =     0.01 TOTAL CPU TIME =        0.0 (    0.0 MIN)
 TOTAL WALL CLOCK TIME=        0.0 SECONDS, CPU UTILIZATION IS 150.00%

     ----------------------------------------------------------------
     PROPERTY VALUES FOR THE RHF   SELF-CONSISTENT FIELD WAVEFUNCTION
     ----------------------------------------------------------------

                    -------------
                    MOPAC CHARGES
                    -------------
         ATOM NO.   TYPE          CHARGE        ATOM  ELECTRON DENSITY
           1         O             -0.3507          6.3507
           2         H              0.1753          0.8247
           3         H              0.1753          0.8247

          ---------------------
          ELECTROSTATIC MOMENTS
          ---------------------

 POINT   1           X           Y           Z (ANGS)      CHARGE
                 0.000000    0.000000    0.000000       -0.00 (A.U.)
         DX          DY          DZ         /D/  (DEBYE)
    -0.000000   -1.762282    0.000000    1.762282
 ...... END OF PROPERTY EVALUATION ......
 STEP CPU TIME =     0.00 TOTAL CPU TIME =        0.0 (    0.0 MIN)
 TOTAL WALL CLOCK TIME=        0.0 SECONDS, CPU UTILIZATION IS 150.00%

                         ----------------------
                         GRADIENT OF THE ENERGY
                         ----------------------

 UNITS ARE HARTREE/BOHR    E'X               E'Y               E'Z 
    1 O                0.000000000       0.014620307       0.000000000
    2 H                0.001305763      -0.007310154       0.000000000
    3 H               -0.001305763      -0.007310154       0.000000000

                   MAXIMUM GRADIENT =    0.014620307
                       RMS GRADIENT =    0.006000371
  $VIB   
          IVIB=   0 IATOM=   0 ICOORD=   0 E=      -11.9396588548
  0.000000000E+00 1.462030718E-02 0.000000000E+00 1.305762638E-03-7.310153590E-03
  0.000000000E+00-1.305762638E-03-7.310153590E-03 0.000000000E+00
 -2.477653376E-15-1.762281699E+00 1.933692717E-15

..... END OF SINGLE POINT GRADIENT .....
 STEP CPU TIME =     0.00 TOTAL CPU TIME =        0.0 (    0.0 MIN)
 TOTAL WALL CLOCK TIME=        0.0 SECONDS, CPU UTILIZATION IS 100.00%
                580000  WORDS OF DYNAMIC MEMORY USED
 EXECUTION OF GAMESS TERMINATED NORMALLY Fri Feb  5 13:23:09 2016
 DDI: 263624 bytes (0.3 MB / 0 MWords) used by master data server.

 ----------------------------------------
 CPU timing information for all processes
 ========================================
 0: 0.14 + 0.30 = 0.45
 1: 0.13 + 0.12 = 0.25
 ----------------------------------------
